 DBCSR| CPU Multiplication driver                                            SMM
 DBCSR| Multrec recursion limit                                              512
 DBCSR| Multiplication stack size                                          30000
 DBCSR| Maximum elements for images                                    UNLIMITED
 DBCSR| Multiplicative factor virtual images                                   1
 DBCSR| Use multiplication densification                                       F
 DBCSR| Multiplication size stacks                                             3
 DBCSR| Number of 3D layers                                               SINGLE
 DBCSR| Use MPI memory allocation                                              T
 DBCSR| Use RMA algorithm                                                      F
 DBCSR| Use Communication thread                                               T
 DBCSR| Communication thread load                                             87
 DBCSR| ACC: Number of devices/node                                            1
 DBCSR| ACC: Number of priority stack-buffers                                 40
 DBCSR| ACC: Number of posterior stack-buffers                                80
 DBCSR| ACC: Number of priority streams                                        4
 DBCSR| ACC: Number of posterior streams                                       4
 DBCSR| ACC: Avoid driver after busy                                           F
 DBCSR| ACC: Process inhomogeneous stacks                                      T
 DBCSR| ACC: Min. flop for processing                                          0
 DBCSR| ACC: Min. flop for sorting                                          4000
 DBCSR| ACC: Number of binning bins                                         4096
 DBCSR| ACC: Size of binning bins                                             16


  **** **** ******  **  PROGRAM STARTED AT               2020-10-08 14:27:19.820
 ***** ** ***  *** **   PROGRAM STARTED ON                              nid05840
 **    ****   ******    PROGRAM STARTED BY                                keimre
 ***** **    ** ** **   PROGRAM PROCESS ID                                 14875
  **** **  *******  **  PROGRAM STARTED IN /scratch/snx3000/keimre/cp2k-polyphen
                                           ylene/12-uc

 CP2K| version string:                                          CP2K version 7.1
 CP2K| source code revision number:                                  git:e635599
 CP2K| cp2kflags: omp libint fftw3 libxc elpa parallel mpi3 scalapack acc smm_dn
 CP2K|            n smm dbcsr_acc max_contr=4
 CP2K| is freely available from                            https://www.cp2k.org/
 CP2K| Program compiled at                         Fri Sep 11 00:17:57 CEST 2020
 CP2K| Program compiled on                                              daint101
 CP2K| Program compiled for                                CP2K-7.1-CrayGNU-cuda
 CP2K| Data directory path               /users/keimre/soft/cp2k-7.1_200919/data
 CP2K| Input file name                                                  cp2k.inp

 GLOBAL| Force Environment number                                              1
 GLOBAL| Basis set file name                                      ./BASIS_MOLOPT
 GLOBAL| Potential file name                                         ./POTENTIAL
 GLOBAL| MM Potential file name                                     MM_POTENTIAL
 GLOBAL| Coordinate file name                                 ./ppp_12uc-opt.xyz
 GLOBAL| Method name                                                        CP2K
 GLOBAL| Project name                                                       PROJ
 GLOBAL| Preferred FFT library                                             FFTW3
 GLOBAL| Preferred diagonalization lib.                                     ELPA
 GLOBAL| Run type                                                         ENERGY
 GLOBAL| All-to-all communication in single precision                          F
 GLOBAL| FFTs using library dependent lengths                                  T
 GLOBAL| Global print level                                               MEDIUM
 GLOBAL| MPI I/O enabled                                                       T
 GLOBAL| Total number of message passing processes                            12
 GLOBAL| Number of threads for this process                                    1
 GLOBAL| This output is from process                                           0
 GLOBAL| CPU model name                Intel(R) Xeon(R) CPU E5-2690 v3 @ 2.60GHz
 GLOBAL| CPUID                                                              1002

 MEMORY| system memory details [Kb]
 MEMORY|                        rank 0           min           max       average
 MEMORY| MemTotal             65842332      65842332      65842332      65842332
 MEMORY| MemFree              58956520      58956520      58956520      58956520
 MEMORY| Buffers                 11952         11952         11952         11952
 MEMORY| Cached                3962504       3962504       3962504       3962504
 MEMORY| Slab                   377488        377488        377488        377488
 MEMORY| SReclaimable            55708         55708         55708         55708
 MEMORY| MemLikelyFree        62986684      62986684      62986684      62986684


 *** Fundamental physical constants (SI units) ***

 *** Literature: B. J. Mohr and B. N. Taylor,
 ***             CODATA recommended values of the fundamental physical
 ***             constants: 2006, Web Version 5.1
 ***             http://physics.nist.gov/constants

 Speed of light in vacuum [m/s]                             2.99792458000000E+08
 Magnetic constant or permeability of vacuum [N/A**2]       1.25663706143592E-06
 Electric constant or permittivity of vacuum [F/m]          8.85418781762039E-12
 Planck constant (h) [J*s]                                  6.62606896000000E-34
 Planck constant (h-bar) [J*s]                              1.05457162825177E-34
 Elementary charge [C]                                      1.60217648700000E-19
 Electron mass [kg]                                         9.10938215000000E-31
 Electron g factor [ ]                                     -2.00231930436220E+00
 Proton mass [kg]                                           1.67262163700000E-27
 Fine-structure constant                                    7.29735253760000E-03
 Rydberg constant [1/m]                                     1.09737315685270E+07
 Avogadro constant [1/mol]                                  6.02214179000000E+23
 Boltzmann constant [J/K]                                   1.38065040000000E-23
 Atomic mass unit [kg]                                      1.66053878200000E-27
 Bohr radius [m]                                            5.29177208590000E-11

 *** Conversion factors ***

 [u] -> [a.u.]                                              1.82288848426455E+03
 [Angstrom] -> [Bohr] = [a.u.]                              1.88972613288564E+00
 [a.u.] = [Bohr] -> [Angstrom]                              5.29177208590000E-01
 [a.u.] -> [s]                                              2.41888432650478E-17
 [a.u.] -> [fs]                                             2.41888432650478E-02
 [a.u.] -> [J]                                              4.35974393937059E-18
 [a.u.] -> [N]                                              8.23872205491840E-08
 [a.u.] -> [K]                                              3.15774647902944E+05
 [a.u.] -> [kJ/mol]                                         2.62549961709828E+03
 [a.u.] -> [kcal/mol]                                       6.27509468713739E+02
 [a.u.] -> [Pa]                                             2.94210107994716E+13
 [a.u.] -> [bar]                                            2.94210107994716E+08
 [a.u.] -> [atm]                                            2.90362800883016E+08
 [a.u.] -> [eV]                                             2.72113838565563E+01
 [a.u.] -> [Hz]                                             6.57968392072181E+15
 [a.u.] -> [1/cm] (wave numbers)                            2.19474631370540E+05
 [a.u./Bohr**2] -> [1/cm]                                   5.14048714338585E+03
 

 CELL_TOP| Volume [angstrom^3]:                                        16384.000
 CELL_TOP| Vector a [angstrom    64.000     0.000     0.000    |a| =      64.000
 CELL_TOP| Vector b [angstrom     0.000    16.000     0.000    |b| =      16.000
 CELL_TOP| Vector c [angstrom     0.000     0.000    16.000    |c| =      16.000
 CELL_TOP| Angle (b,c), alpha [degree]:                                   90.000
 CELL_TOP| Angle (a,c), beta  [degree]:                                   90.000
 CELL_TOP| Angle (a,b), gamma [degree]:                                   90.000
 CELL_TOP| Numerically orthorhombic:                                         YES

 GENERATE|  Preliminary Number of Bonds generated:                             0
 GENERATE|  Achieved consistency in connectivity generation.

 CELL| Volume [angstrom^3]:                                            16384.000
 CELL| Vector a [angstrom]:      64.000     0.000     0.000    |a| =      64.000
 CELL| Vector b [angstrom]:       0.000    16.000     0.000    |b| =      16.000
 CELL| Vector c [angstrom]:       0.000     0.000    16.000    |c| =      16.000
 CELL| Angle (b,c), alpha [degree]:                                       90.000
 CELL| Angle (a,c), beta  [degree]:                                       90.000
 CELL| Angle (a,b), gamma [degree]:                                       90.000
 CELL| Numerically orthorhombic:                                             YES

 CELL_REF| Volume [angstrom^3]:                                        16384.000
 CELL_REF| Vector a [angstrom    64.000     0.000     0.000    |a| =      64.000
 CELL_REF| Vector b [angstrom     0.000    16.000     0.000    |b| =      16.000
 CELL_REF| Vector c [angstrom     0.000     0.000    16.000    |c| =      16.000
 CELL_REF| Angle (b,c), alpha [degree]:                                   90.000
 CELL_REF| Angle (a,c), beta  [degree]:                                   90.000
 CELL_REF| Angle (a,b), gamma [degree]:                                   90.000
 CELL_REF| Numerically orthorhombic:                                         YES

 *******************************************************************************
 *******************************************************************************
 **                                                                           **
 **     #####                         ##              ##                      **
 **    ##   ##            ##          ##              ##                      **
 **   ##     ##                       ##            ######                    **
 **   ##     ##  ##   ##  ##   #####  ##  ##   ####   ##    #####    #####    **
 **   ##     ##  ##   ##  ##  ##      ## ##   ##      ##   ##   ##  ##   ##   **
 **   ##  ## ##  ##   ##  ##  ##      ####     ###    ##   ######   ######    **
 **    ##  ###   ##   ##  ##  ##      ## ##      ##   ##   ##       ##        **
 **     #######   #####   ##   #####  ##  ##  ####    ##    #####   ##        **
 **           ##                                                    ##        **
 **                                                                           **
 **                                                ... make the atoms dance   **
 **                                                                           **
 **            Copyright (C) by CP2K developers group (2000 - 2019)           **
 **                                                                           **
 *******************************************************************************

 DFT| Spin restricted Kohn-Sham (RKS) calculation                            RKS
 DFT| Multiplicity                                                             1
 DFT| Number of spin states                                                    1
 DFT| Charge                                                                   0
 DFT| Self-interaction correction (SIC)                                       NO
 DFT| Cutoffs: density                                              1.000000E-10
 DFT|          gradient                                             1.000000E-10
 DFT|          tau                                                  1.000000E-10
 DFT|          cutoff_smoothing_range                               0.000000E+00
 DFT| XC density smoothing                                                  NONE
 DFT| XC derivatives                                                          PW
 FUNCTIONAL| ROUTINE=NEW
 FUNCTIONAL| PBE:
 FUNCTIONAL| J.P.Perdew, K.Burke, M.Ernzerhof, Phys. Rev. Letter, vol. 77, n 18,
 FUNCTIONAL|  pp. 3865-3868, (1996){spin unpolarized}                           

 QS| Method:                                                                 GPW
 QS| Density plane wave grid type                        NON-SPHERICAL FULLSPACE
 QS| Number of grid levels:                                                    5
 QS| Density cutoff [a.u.]:                                                300.0
 QS| Multi grid cutoff [a.u.]: 1) grid level                               300.0
 QS|                           2) grid level                               100.0
 QS|                           3) grid level                                33.3
 QS|                           4) grid level                                11.1
 QS|                           5) grid level                                 3.7
 QS| Grid level progression factor:                                          3.0
 QS| Relative density cutoff [a.u.]:                                        20.0
 QS| Consistent realspace mapping and integration 
 QS| Interaction thresholds: eps_pgf_orb:                                1.0E-07
 QS|                         eps_filter_matrix:                          0.0E+00
 QS|                         eps_core_charge:                            1.0E-16
 QS|                         eps_rho_gspace:                             1.0E-14
 QS|                         eps_rho_rspace:                             1.0E-14
 QS|                         eps_gvg_rspace:                             1.0E-07
 QS|                         eps_ppl:                                    1.0E-02
 QS|                         eps_ppnl:                                   1.0E-09


 ATOMIC KIND INFORMATION

  1. Atomic kind: H                                     Number of atoms:      50

     Orbital Basis Set                                         SZV-MOLOPT-GTH-q1

       Number of orbital shell sets:                                           1
       Number of orbital shells:                                               1
       Number of primitive Cartesian functions:                                7
       Number of Cartesian basis functions:                                    1
       Number of spherical basis functions:                                    1
       Norm type:                                                              2

       Normalised Cartesian orbitals:

                        Set   Shell   Orbital            Exponent    Coefficient

                          1       1    2s               11.478000       0.129129
                                                         3.700759       0.177012
                                                         1.446884       0.141285
                                                         0.716815       0.245670
                                                         0.247919       0.094768
                                                         0.066918       0.004062
                                                         0.021708      -0.000053

     GTH Potential information for                                    GTH-PBE-q1

       Description:                       Goedecker-Teter-Hutter pseudopotential
                                           Goedecker et al., PRB 54, 1703 (1996)
                                          Hartwigsen et al., PRB 58, 3641 (1998)
                                                      Krack, TCA 114, 145 (2005)

       Gaussian exponent of the core charge distribution:              12.500000
       Electronic configuration (s p d ...):                                   1

       Parameters of the local part of the GTH pseudopotential:

                          rloc        C1          C2          C3          C4
                        0.200000   -4.178900    0.724463

  2. Atomic kind: C                                     Number of atoms:      72

     Orbital Basis Set                                         SZV-MOLOPT-GTH-q4

       Number of orbital shell sets:                                           1
       Number of orbital shells:                                               2
       Number of primitive Cartesian functions:                                7
       Number of Cartesian basis functions:                                    4
       Number of spherical basis functions:                                    4
       Norm type:                                                              2

       Normalised Cartesian orbitals:

                        Set   Shell   Orbital            Exponent    Coefficient

                          1       1    2s                6.132625      -0.263661
                                                         2.625196      -0.231112
                                                         1.045457       0.042712
                                                         0.478316       0.306085
                                                         0.178617       0.065483
                                                         0.075145       0.000568
                                                         0.030287       0.000417

                          1       2    3px               6.132625       0.562677
                                                         2.625196       0.633910
                                                         1.045457       0.379157
                                                         0.478316       0.235193
                                                         0.178617       0.052379
                                                         0.075145       0.003677
                                                         0.030287       0.000105
                          1       2    3py               6.132625       0.562677
                                                         2.625196       0.633910
                                                         1.045457       0.379157
                                                         0.478316       0.235193
                                                         0.178617       0.052379
                                                         0.075145       0.003677
                                                         0.030287       0.000105
                          1       2    3pz               6.132625       0.562677
                                                         2.625196       0.633910
                                                         1.045457       0.379157
                                                         0.478316       0.235193
                                                         0.178617       0.052379
                                                         0.075145       0.003677
                                                         0.030287       0.000105

     GTH Potential information for                                    GTH-PBE-q4

       Description:                       Goedecker-Teter-Hutter pseudopotential
                                           Goedecker et al., PRB 54, 1703 (1996)
                                          Hartwigsen et al., PRB 58, 3641 (1998)
                                                      Krack, TCA 114, 145 (2005)

       Gaussian exponent of the core charge distribution:               4.364419
       Electronic configuration (s p d ...):                               2   2

       Parameters of the local part of the GTH pseudopotential:

                          rloc        C1          C2          C3          C4
                        0.338471   -8.803674    1.339211

       Parameters of the non-local part of the GTH pseudopotential:

                   l      r(l)      h(i,j,l)

                   0    0.302576    9.622487
                   1    0.291507


 MOLECULE KIND INFORMATION


 All atoms are their own molecule, skipping detailed information


 TOTAL NUMBERS AND MAXIMUM NUMBERS

  Total number of            - Atomic kinds:                                   2
                             - Atoms:                                        122
                             - Shell sets:                                   122
                             - Shells:                                       194
                             - Primitive Cartesian functions:                854
                             - Cartesian basis functions:                    338
                             - Spherical basis functions:                    338

  Maximum angular momentum of- Orbital basis functions:                        1
                             - Local part of the GTH pseudopotential:          2
                             - Non-local part of the GTH pseudopotential:      0


 MODULE QUICKSTEP:  ATOMIC COORDINATES IN angstrom

  Atom  Kind  Element       X           Y           Z          Z(eff)       Mass

       1     1 H    1    8.251032   10.498855    8.000004      1.00       1.0079
       2     2 C    6    9.341519   10.502112    7.999982      4.00      12.0107
       3     1 H    1    9.509741   12.656240    8.000010      1.00       1.0079
       4     1 H    1    9.521978    8.348700    7.999990      1.00       1.0079
       5     2 C    6   10.054237    9.301048    8.000018      4.00      12.0107
       6     2 C    6   10.047659   11.707128    8.000029      4.00      12.0107
       7     2 C    6   11.448124    9.306431    7.999984      4.00      12.0107
       8     2 C    6   11.441729   11.709645    7.999997      4.00      12.0107
       9     1 H    1   11.965347    8.348340    7.999995      1.00       1.0079
      10     2 C    6   12.183642   10.509992    8.000012      4.00      12.0107
      11     1 H    1   11.953674   12.670679    8.000018      1.00       1.0079
      12     1 H    1   13.909793   12.671988    7.999998      1.00       1.0079
      13     2 C    6   13.670004   10.513123    8.000029      4.00      12.0107
      14     1 H    1   13.916045    8.355024    8.000026      1.00       1.0079
      15     2 C    6   14.416648   11.708233    7.999986      4.00      12.0107
      16     2 C    6   14.420163    9.320172    7.999998      4.00      12.0107
      17     2 C    6   15.809831    9.321516    8.000028      4.00      12.0107
      18     2 C    6   15.806514   11.710424    8.000016      4.00      12.0107
      19     1 H    1   16.316867    8.357764    8.000023      1.00       1.0079
      20     2 C    6   16.556677   10.517007    8.000009      4.00      12.0107
      21     1 H    1   16.311334   12.675332    8.000005      1.00       1.0079
      22     1 H    1   18.277585   12.678001    7.999978      1.00       1.0079
      23     2 C    6   18.038451   10.518979    8.000012      4.00      12.0107
      24     1 H    1   18.283482    8.360187    8.000037      1.00       1.0079
      25     2 C    6   18.785404   11.714711    7.999990      4.00      12.0107
      26     2 C    6   18.788377    9.325058    8.000019      4.00      12.0107
      27     2 C    6   20.177681    9.326892    8.000050      4.00      12.0107
      28     2 C    6   20.174850   11.716622    8.000023      4.00      12.0107
      29     1 H    1   20.685368    8.363519    8.000023      1.00       1.0079
      30     2 C    6   20.924742   10.522661    7.999943      4.00      12.0107
      31     1 H    1   20.679895   12.681387    7.999972      1.00       1.0079
      32     1 H    1   22.647141   12.683008    8.000049      1.00       1.0079
      33     2 C    6   22.406054   10.523886    8.000084      4.00      12.0107
      34     1 H    1   22.649188    8.364855    7.999984      1.00       1.0079
      35     2 C    6   23.154001   11.719194    7.999980      4.00      12.0107
      36     2 C    6   23.154927    9.329255    7.999947      4.00      12.0107
      37     2 C    6   24.544145    9.329780    8.000003      4.00      12.0107
      38     2 C    6   24.543274   11.719656    8.000036      4.00      12.0107
      39     1 H    1   25.050942    8.365938    7.999977      1.00       1.0079
      40     2 C    6   25.292116   10.524896    8.000009      4.00      12.0107
      41     1 H    1   25.049485   12.683869    8.000038      1.00       1.0079
      42     1 H    1   27.015612   12.683698    7.999982      1.00       1.0079
      43     2 C    6   26.773104   10.524911    7.999968      4.00      12.0107
      44     1 H    1   27.014731    8.365750    8.000008      1.00       1.0079
      45     2 C    6   27.521867   11.719614    8.000010      4.00      12.0107
      46     2 C    6   27.521240    9.329755    8.000023      4.00      12.0107
      47     2 C    6   28.910431    9.329346    8.000011      4.00      12.0107
      48     2 C    6   28.911178   11.719276    7.999999      4.00      12.0107
      49     1 H    1   29.416437    8.365094    8.000006      1.00       1.0079
      50     2 C    6   29.659286   10.524072    7.999962      4.00      12.0107
      51     1 H    1   29.417556   12.683345    7.999981      1.00       1.0079
      52     1 H    1   31.383795   12.682017    8.000020      1.00       1.0079
      53     2 C    6   31.140484   10.523163    8.000054      4.00      12.0107
      54     1 H    1   31.381122    8.364000    7.999991      1.00       1.0079
      55     2 C    6   31.889608   11.717637    7.999977      4.00      12.0107
      56     2 C    6   31.888222    9.327695    7.999961      4.00      12.0107
      57     2 C    6   33.277494    9.326706    7.999995      4.00      12.0107
      58     2 C    6   33.278821   11.716560    8.000010      4.00      12.0107
      59     1 H    1   33.783160    8.362220    7.999985      1.00       1.0079
      60     2 C    6   34.026693   10.521232    8.000019      4.00      12.0107
      61     1 H    1   33.785959   12.680222    8.000016      1.00       1.0079
      62     1 H    1   35.748866   12.680149    7.999987      1.00       1.0079
      63     2 C    6   35.507902   10.521138    7.999950      4.00      12.0107
      64     1 H    1   35.751246    8.362113    7.999997      1.00       1.0079
      65     2 C    6   36.255866   11.716415    8.000025      4.00      12.0107
      66     2 C    6   36.257007    9.326547    8.000029      4.00      12.0107
      67     2 C    6   37.646302    9.327437    7.999999      4.00      12.0107
      68     2 C    6   37.645106   11.717402    7.999996      4.00      12.0107
      69     1 H    1   38.153207    8.363650    7.999998      1.00       1.0079
      70     2 C    6   38.394122   10.522854    7.999970      4.00      12.0107
      71     1 H    1   38.150982   12.681761    7.999994      1.00       1.0079
      72     1 H    1   40.117256   12.682496    7.999998      1.00       1.0079
      73     2 C    6   39.875288   10.523425    8.000072      4.00      12.0107
      74     1 H    1   40.117472    8.364443    8.000014      1.00       1.0079
      75     2 C    6   40.623720   11.718423    7.999949      4.00      12.0107
      76     2 C    6   40.623804    9.328514    7.999956      4.00      12.0107
      77     2 C    6   42.012943    9.328452    8.000043      4.00      12.0107
      78     2 C    6   42.013011   11.718310    8.000036      4.00      12.0107
      79     1 H    1   42.519293    8.364378    8.000010      1.00       1.0079
      80     2 C    6   42.761458   10.523340    7.999975      4.00      12.0107
      81     1 H    1   42.519610   12.682306    7.999998      1.00       1.0079
      82     1 H    1   44.484845   12.682001    8.000010      1.00       1.0079
      83     2 C    6   44.242565   10.523091    8.000020      4.00      12.0107
      84     1 H    1   44.484251    8.363929    8.000019      1.00       1.0079
      85     2 C    6   44.991176   11.717894    8.000004      4.00      12.0107
      86     2 C    6   44.990750    9.327940    8.000009      4.00      12.0107
      87     2 C    6   46.379999    9.327691    8.000021      4.00      12.0107
      88     2 C    6   46.380431   11.717613    8.000018      4.00      12.0107
      89     1 H    1   46.886198    8.363516    8.000007      1.00       1.0079
      90     2 C    6   47.128602   10.522535    7.999968      4.00      12.0107
      91     1 H    1   46.887098   12.681539    7.999997      1.00       1.0079
      92     1 H    1   48.851548   12.681309    8.000008      1.00       1.0079
      93     2 C    6   48.609785   10.522395    8.000035      4.00      12.0107
      94     1 H    1   48.851834    8.363372    7.999974      1.00       1.0079
      95     2 C    6   49.358106   11.717325    7.999974      4.00      12.0107
      96     2 C    6   49.358194    9.327471    7.999958      4.00      12.0107
      97     2 C    6   50.747478    9.327577    8.000014      4.00      12.0107
      98     2 C    6   50.747403   11.717327    8.000029      4.00      12.0107
      99     1 H    1   51.253994    8.363562    7.999976      1.00       1.0079
     100     2 C    6   51.495733   10.522499    7.999951      4.00      12.0107
     101     1 H    1   51.253916   12.681343    8.000004      1.00       1.0079
     102     1 H    1   53.219477   12.681414    7.999985      1.00       1.0079
     103     2 C    6   52.977348   10.522656    8.000088      4.00      12.0107
     104     1 H    1   53.219997    8.363871    8.000053      1.00       1.0079
     105     2 C    6   53.725617   11.717207    7.999928      4.00      12.0107
     106     2 C    6   53.725872    9.328228    7.999964      4.00      12.0107
     107     2 C    6   55.115587    9.328780    8.000085      4.00      12.0107
     108     2 C    6   55.115384   11.716976    8.000053      4.00      12.0107
     109     1 H    1   55.621086    8.364331    8.000029      1.00       1.0079
     110     2 C    6   55.863786   10.522970    7.999915      4.00      12.0107
     111     1 H    1   55.620844   12.681447    7.999966      1.00       1.0079
     112     1 H    1   57.573991   12.684087    8.000000      1.00       1.0079
     113     2 C    6   57.350070   10.522997    8.000022      4.00      12.0107
     114     1 H    1   57.574166    8.361840    7.999971      1.00       1.0079
     115     2 C    6   58.088721   11.724614    7.999992      4.00      12.0107
     116     2 C    6   58.088761    9.321390    7.999976      4.00      12.0107
     117     2 C    6   59.482679    9.319980    7.999964      4.00      12.0107
     118     2 C    6   59.482693   11.726085    7.999978      4.00      12.0107
     119     1 H    1   60.017759    8.369220    7.999968      1.00       1.0079
     120     2 C    6   60.192120   10.523027    7.999997      4.00      12.0107
     121     1 H    1   60.017777   12.676794    7.999997      1.00       1.0079
     122     1 H    1   61.282585   10.522872    7.999979      1.00       1.0079




 SCF PARAMETERS         Density guess:                                   RESTART
                        --------------------------------------------------------
                        max_scf:                                            1000
                        max_scf_history:                                       0
                        max_diis:                                              4
                        --------------------------------------------------------
                        eps_scf:                                        1.00E-07
                        eps_scf_history:                                0.00E+00
                        eps_diis:                                       1.00E-01
                        eps_eigval:                                     1.00E-05
                        --------------------------------------------------------
                        level_shift [a.u.]:                                 0.00
                        added MOs                                        20    0
                        --------------------------------------------------------
                        Mixing method:                            BROYDEN_MIXING
                                                charge density mixing in g-space
                        --------------------------------------------------------
                        Outer loop SCF in use 
                        No variables optimised in outer loop
                        eps_scf                                         1.00E-07
                        max_scf                                              500
                        No outer loop optimization
                        step_size                                       5.00E-01

 PW_GRID| Information for grid number                                          1
 PW_GRID| Grid distributed over                                    12 processors
 PW_GRID| Real space group dimensions                                    12    1
 PW_GRID| the grid is blocked:                                                NO
 PW_GRID| Cutoff [a.u.]                                                    300.0
 PW_GRID| spherical cutoff:                                                   NO
 PW_GRID|   Bounds   1           -472     472                Points:         945
 PW_GRID|   Bounds   2           -120     119                Points:         240
 PW_GRID|   Bounds   3           -120     119                Points:         240
 PW_GRID| Volume element (a.u.^3)  0.2031E-02     Volume (a.u.^3)    110564.7138
 PW_GRID| Grid span                                                    FULLSPACE
 PW_GRID|   Distribution                         Average         Max         Min
 PW_GRID|   G-Vectors                          4536000.0     4536000     4536000
 PW_GRID|   G-Rays                                4800.0        4800        4800
 PW_GRID|   Real Space Points                  4536000.0     4550400     4492800

 PW_GRID| Information for grid number                                          2
 PW_GRID| Number of the reference grid                                         1
 PW_GRID| Grid distributed over                                    12 processors
 PW_GRID| Real space group dimensions                                    12    1
 PW_GRID| the grid is blocked:                                                NO
 PW_GRID| Cutoff [a.u.]                                                    100.0
 PW_GRID| spherical cutoff:                                                   NO
 PW_GRID|   Bounds   1           -275     274                Points:         550
 PW_GRID|   Bounds   2            -70      69                Points:         140
 PW_GRID|   Bounds   3            -70      69                Points:         140
 PW_GRID| Volume element (a.u.^3)  0.1026E-01     Volume (a.u.^3)    110564.7138
 PW_GRID| Grid span                                                    FULLSPACE
 PW_GRID|   Distribution                         Average         Max         Min
 PW_GRID|   G-Vectors                           898333.3      899250      897600
 PW_GRID|   G-Rays                                1633.3        1635        1632
 PW_GRID|   Real Space Points                   898333.3      901600      882000

 PW_GRID| Information for grid number                                          3
 PW_GRID| Number of the reference grid                                         1
 PW_GRID| Grid distributed over                                    12 processors
 PW_GRID| Real space group dimensions                                    12    1
 PW_GRID| the grid is blocked:                                                NO
 PW_GRID| Cutoff [a.u.]                                                     33.3
 PW_GRID| spherical cutoff:                                                   NO
 PW_GRID|   Bounds   1           -157     157                Points:         315
 PW_GRID|   Bounds   2            -40      39                Points:          80
 PW_GRID|   Bounds   3            -40      39                Points:          80
 PW_GRID| Volume element (a.u.^3)  0.5484E-01     Volume (a.u.^3)    110564.7138
 PW_GRID| Grid span                                                    FULLSPACE
 PW_GRID|   Distribution                         Average         Max         Min
 PW_GRID|   G-Vectors                           168000.0      168210      167580
 PW_GRID|   G-Rays                                 533.3         534         532
 PW_GRID|   Real Space Points                   168000.0      172800      166400

 PW_GRID| Information for grid number                                          4
 PW_GRID| Number of the reference grid                                         1
 PW_GRID| Grid distributed over                                    12 processors
 PW_GRID| Real space group dimensions                                    12    1
 PW_GRID| the grid is blocked:                                                NO
 PW_GRID| Cutoff [a.u.]                                                     11.1
 PW_GRID| spherical cutoff:                                                   NO
 PW_GRID|   Bounds   1            -94      94                Points:         189
 PW_GRID|   Bounds   2            -22      22                Points:          45
 PW_GRID|   Bounds   3            -22      22                Points:          45
 PW_GRID| Volume element (a.u.^3)  0.2889         Volume (a.u.^3)    110564.7138
 PW_GRID| Grid span                                                    FULLSPACE
 PW_GRID|   Distribution                         Average         Max         Min
 PW_GRID|   G-Vectors                            31893.8       32319       31752
 PW_GRID|   G-Rays                                 168.8         171         168
 PW_GRID|   Real Space Points                    31893.8       32400       30375

 PW_GRID| Information for grid number                                          5
 PW_GRID| Number of the reference grid                                         1
 PW_GRID| Grid distributed over                                    12 processors
 PW_GRID| Real space group dimensions                                    12    1
 PW_GRID| the grid is blocked:                                                NO
 PW_GRID| Cutoff [a.u.]                                                      3.7
 PW_GRID| spherical cutoff:                                                   NO
 PW_GRID|   Bounds   1            -52      52                Points:         105
 PW_GRID|   Bounds   2            -13      13                Points:          27
 PW_GRID|   Bounds   3            -13      13                Points:          27
 PW_GRID| Volume element (a.u.^3)   1.444         Volume (a.u.^3)    110564.7138
 PW_GRID| Grid span                                                    FULLSPACE
 PW_GRID|   Distribution                         Average         Max         Min
 PW_GRID|   G-Vectors                             6378.8        6615        6300
 PW_GRID|   G-Rays                                  60.8          63          60
 PW_GRID|   Real Space Points                     6378.8        6561        5832

 POISSON| Solver                                                        PERIODIC
 POISSON| Periodicity                                                        XYZ

 RS_GRID| Information for grid number                                          1
 RS_GRID|   Bounds   1           -472     472                Points:         945
 RS_GRID|   Bounds   2           -120     119                Points:         240
 RS_GRID|   Bounds   3           -120     119                Points:         240
 RS_GRID| Real space distribution over                                 12 groups
 RS_GRID| Real space distribution along direction                              1
 RS_GRID| Border size                                                         24
 RS_GRID|   Distribution                         Average         Max         Min
 RS_GRID|   Planes                                 126.8         127         126

 RS_GRID| Information for grid number                                          2
 RS_GRID|   Bounds   1           -275     274                Points:         550
 RS_GRID|   Bounds   2            -70      69                Points:         140
 RS_GRID|   Bounds   3            -70      69                Points:         140
 RS_GRID| Real space distribution over                                 12 groups
 RS_GRID| Real space distribution along direction                              1
 RS_GRID| Border size                                                         23
 RS_GRID|   Distribution                         Average         Max         Min
 RS_GRID|   Planes                                  91.8          92          91

 RS_GRID| Information for grid number                                          3
 RS_GRID|   Bounds   1           -157     157                Points:         315
 RS_GRID|   Bounds   2            -40      39                Points:          80
 RS_GRID|   Bounds   3            -40      39                Points:          80
 RS_GRID| Real space fully replicated
 RS_GRID| Group size                                                           1

 RS_GRID| Information for grid number                                          4
 RS_GRID|   Bounds   1            -94      94                Points:         189
 RS_GRID|   Bounds   2            -22      22                Points:          45
 RS_GRID|   Bounds   3            -22      22                Points:          45
 RS_GRID| Real space fully replicated
 RS_GRID| Group size                                                           1

 RS_GRID| Information for grid number                                          5
 RS_GRID|   Bounds   1            -52      52                Points:         105
 RS_GRID|   Bounds   2            -13      13                Points:          27
 RS_GRID|   Bounds   3            -13      13                Points:          27
 RS_GRID| Real space fully replicated
 RS_GRID| Group size                                                           1

 Number of electrons:                                                        338
 Number of occupied orbitals:                                                169
 Number of molecular orbitals:                                               189

 Number of orbital functions:                                                338
 Number of independent orbital functions:                                    338

 Extrapolation method: initial_guess


 SCF WAVEFUNCTION OPTIMIZATION

  Step     Update method      Time    Convergence         Total energy    Change
  ------------------------------------------------------------------------------
     1 NoMix/Diag. 0.10E+00    9.6     0.00000080      -437.5065622601 -4.38E+02
     2 Broy./Diag. 0.10E+00   12.8     0.00000006      -437.5065662838 -4.02E-06

  *** SCF run converged in     2 steps ***


  Electronic density on regular grids:       -338.0000000000        0.0000000000
  Core density on regular grids:              338.0000000000       -0.0000000000
  Total charge density on r-space grids:       -0.0000000000
  Total charge density g-space grids:          -0.0000000000

  Overlap energy of the core charge distribution:               0.00002998883189
  Self energy of the core charge distribution:              -1030.64426867056477
  Core Hamiltonian energy:                                    333.02484205774556
  Hartree energy:                                             404.74153227913018
  Exchange-correlation energy:                               -144.62870193894912

  Total energy:                                              -437.50656628380636

  outer SCF iter =    1 RMS gradient =   0.63E-07 energy =       -437.5065662838
  outer SCF loop converged in   1 iterations or    2 steps


 !-----------------------------------------------------------------------------!
                     Mulliken Population Analysis

 #  Atom  Element  Kind  Atomic population                           Net charge
       1     H        1          0.805090                              0.194910
       2     C        2          4.189708                             -0.189708
       3     H        1          0.805456                              0.194544
       4     H        1          0.805457                              0.194543
       5     C        2          4.191490                             -0.191490
       6     C        2          4.191475                             -0.191475
       7     C        2          4.174667                             -0.174667
       8     C        2          4.174728                             -0.174728
       9     H        1          0.810110                              0.189890
      10     C        2          4.035148                             -0.035148
      11     H        1          0.810049                              0.189951
      12     H        1          0.809440                              0.190560
      13     C        2          4.032608                             -0.032608
      14     H        1          0.809502                              0.190498
      15     C        2          4.175326                             -0.175326
      16     C        2          4.175251                             -0.175251
      17     C        2          4.174727                             -0.174727
      18     C        2          4.174704                             -0.174704
      19     H        1          0.809403                              0.190597
      20     C        2          4.033854                             -0.033854
      21     H        1          0.809409                              0.190591
      22     H        1          0.809178                              0.190822
      23     C        2          4.033011                             -0.033011
      24     H        1          0.809169                              0.190831
      25     C        2          4.174664                             -0.174664
      26     C        2          4.174676                             -0.174676
      27     C        2          4.174520                             -0.174520
      28     C        2          4.174571                             -0.174571
      29     H        1          0.809211                              0.190789
      30     C        2          4.033305                             -0.033305
      31     H        1          0.809171                              0.190829
      32     H        1          0.809085                              0.190915
      33     C        2          4.033025                             -0.033025
      34     H        1          0.809126                              0.190874
      35     C        2          4.174539                             -0.174539
      36     C        2          4.174497                             -0.174497
      37     C        2          4.174443                             -0.174443
      38     C        2          4.174462                             -0.174462
      39     H        1          0.809130                              0.190870
      40     C        2          4.033146                             -0.033146
      41     H        1          0.809104                              0.190896
      42     H        1          0.809081                              0.190919
      43     C        2          4.033049                             -0.033049
      44     H        1          0.809104                              0.190896
      45     C        2          4.174456                             -0.174456
      46     C        2          4.174432                             -0.174432
      47     C        2          4.174434                             -0.174434
      48     C        2          4.174456                             -0.174456
      49     H        1          0.809094                              0.190906
      50     C        2          4.033072                             -0.033072
      51     H        1          0.809074                              0.190926
      52     H        1          0.809057                              0.190943
      53     C        2          4.033032                             -0.033032
      54     H        1          0.809082                              0.190918
      55     C        2          4.174458                             -0.174458
      56     C        2          4.174428                             -0.174428
      57     C        2          4.174461                             -0.174461
      58     C        2          4.174394                             -0.174394
      59     H        1          0.809048                              0.190952
      60     C        2          4.033056                             -0.033056
      61     H        1          0.809103                              0.190897
      62     H        1          0.809103                              0.190897
      63     C        2          4.033058                             -0.033058
      64     H        1          0.809049                              0.190951
      65     C        2          4.174389                             -0.174389
      66     C        2          4.174459                             -0.174459
      67     C        2          4.174420                             -0.174420
      68     C        2          4.174463                             -0.174463
      69     H        1          0.809084                              0.190916
      70     C        2          4.033037                             -0.033037
      71     H        1          0.809059                              0.190941
      72     H        1          0.809073                              0.190927
      73     C        2          4.033068                             -0.033068
      74     H        1          0.809097                              0.190903
      75     C        2          4.174459                             -0.174459
      76     C        2          4.174432                             -0.174432
      77     C        2          4.174454                             -0.174454
      78     C        2          4.174448                             -0.174448
      79     H        1          0.809091                              0.190909
      80     C        2          4.033039                             -0.033039
      81     H        1          0.809088                              0.190912
      82     H        1          0.809111                              0.190889
      83     C        2          4.033137                             -0.033137
      84     H        1          0.809115                              0.190885
      85     C        2          4.174470                             -0.174470
      86     C        2          4.174463                             -0.174463
      87     C        2          4.174512                             -0.174512
      88     C        2          4.174501                             -0.174501
      89     H        1          0.809109                              0.190891
      90     C        2          4.033032                             -0.033032
      91     H        1          0.809118                              0.190882
      92     H        1          0.809196                              0.190804
      93     C        2          4.033299                             -0.033299
      94     H        1          0.809186                              0.190814
      95     C        2          4.174537                             -0.174537
      96     C        2          4.174549                             -0.174549
      97     C        2          4.174669                             -0.174669
      98     C        2          4.174666                             -0.174666
      99     H        1          0.809173                              0.190827
     100     C        2          4.033004                             -0.033004
     101     H        1          0.809176                              0.190824
     102     H        1          0.809413                              0.190587
     103     C        2          4.033854                             -0.033854
     104     H        1          0.809411                              0.190589
     105     C        2          4.174708                             -0.174708
     106     C        2          4.174711                             -0.174711
     107     C        2          4.175286                             -0.175286
     108     C        2          4.175292                             -0.175292
     109     H        1          0.809472                              0.190528
     110     C        2          4.032602                             -0.032602
     111     H        1          0.809468                              0.190532
     112     H        1          0.810083                              0.189917
     113     C        2          4.035143                             -0.035143
     114     H        1          0.810083                              0.189917
     115     C        2          4.174698                             -0.174698
     116     C        2          4.174700                             -0.174700
     117     C        2          4.191481                             -0.191481
     118     C        2          4.191487                             -0.191487
     119     H        1          0.805459                              0.194541
     120     C        2          4.189708                             -0.189708
     121     H        1          0.805455                              0.194545
     122     H        1          0.805092                              0.194908
 # Total charge                            338.000000                 -0.000000

 !-----------------------------------------------------------------------------!

 !-----------------------------------------------------------------------------!
                           Hirshfeld Charges

  #Atom  Element  Kind  Ref Charge     Population                    Net charge
      1       H      1       1.000          0.577                         0.423
      2       C      2       4.000          4.415                        -0.415
      3       H      1       1.000          0.578                         0.422
      4       H      1       1.000          0.578                         0.422
      5       C      2       4.000          4.419                        -0.419
      6       C      2       4.000          4.419                        -0.419
      7       C      2       4.000          4.416                        -0.416
      8       C      2       4.000          4.416                        -0.416
      9       H      1       1.000          0.582                         0.418
     10       C      2       4.000          4.005                        -0.005
     11       H      1       1.000          0.582                         0.418
     12       H      1       1.000          0.581                         0.419
     13       C      2       4.000          4.003                        -0.003
     14       H      1       1.000          0.581                         0.419
     15       C      2       4.000          4.417                        -0.417
     16       C      2       4.000          4.417                        -0.417
     17       C      2       4.000          4.417                        -0.417
     18       C      2       4.000          4.417                        -0.417
     19       H      1       1.000          0.581                         0.419
     20       C      2       4.000          4.003                        -0.003
     21       H      1       1.000          0.581                         0.419
     22       H      1       1.000          0.581                         0.419
     23       C      2       4.000          4.002                        -0.002
     24       H      1       1.000          0.581                         0.419
     25       C      2       4.000          4.417                        -0.417
     26       C      2       4.000          4.417                        -0.417
     27       C      2       4.000          4.417                        -0.417
     28       C      2       4.000          4.417                        -0.417
     29       H      1       1.000          0.581                         0.419
     30       C      2       4.000          4.003                        -0.003
     31       H      1       1.000          0.581                         0.419
     32       H      1       1.000          0.581                         0.419
     33       C      2       4.000          4.002                        -0.002
     34       H      1       1.000          0.581                         0.419
     35       C      2       4.000          4.417                        -0.417
     36       C      2       4.000          4.417                        -0.417
     37       C      2       4.000          4.417                        -0.417
     38       C      2       4.000          4.417                        -0.417
     39       H      1       1.000          0.581                         0.419
     40       C      2       4.000          4.002                        -0.002
     41       H      1       1.000          0.581                         0.419
     42       H      1       1.000          0.581                         0.419
     43       C      2       4.000          4.002                        -0.002
     44       H      1       1.000          0.581                         0.419
     45       C      2       4.000          4.417                        -0.417
     46       C      2       4.000          4.417                        -0.417
     47       C      2       4.000          4.417                        -0.417
     48       C      2       4.000          4.417                        -0.417
     49       H      1       1.000          0.581                         0.419
     50       C      2       4.000          4.002                        -0.002
     51       H      1       1.000          0.581                         0.419
     52       H      1       1.000          0.581                         0.419
     53       C      2       4.000          4.002                        -0.002
     54       H      1       1.000          0.581                         0.419
     55       C      2       4.000          4.416                        -0.416
     56       C      2       4.000          4.417                        -0.417
     57       C      2       4.000          4.417                        -0.417
     58       C      2       4.000          4.416                        -0.416
     59       H      1       1.000          0.581                         0.419
     60       C      2       4.000          4.002                        -0.002
     61       H      1       1.000          0.581                         0.419
     62       H      1       1.000          0.581                         0.419
     63       C      2       4.000          4.002                        -0.002
     64       H      1       1.000          0.581                         0.419
     65       C      2       4.000          4.416                        -0.416
     66       C      2       4.000          4.417                        -0.417
     67       C      2       4.000          4.417                        -0.417
     68       C      2       4.000          4.417                        -0.417
     69       H      1       1.000          0.581                         0.419
     70       C      2       4.000          4.002                        -0.002
     71       H      1       1.000          0.581                         0.419
     72       H      1       1.000          0.581                         0.419
     73       C      2       4.000          4.002                        -0.002
     74       H      1       1.000          0.581                         0.419
     75       C      2       4.000          4.417                        -0.417
     76       C      2       4.000          4.417                        -0.417
     77       C      2       4.000          4.417                        -0.417
     78       C      2       4.000          4.417                        -0.417
     79       H      1       1.000          0.581                         0.419
     80       C      2       4.000          4.002                        -0.002
     81       H      1       1.000          0.581                         0.419
     82       H      1       1.000          0.581                         0.419
     83       C      2       4.000          4.002                        -0.002
     84       H      1       1.000          0.581                         0.419
     85       C      2       4.000          4.417                        -0.417
     86       C      2       4.000          4.417                        -0.417
     87       C      2       4.000          4.417                        -0.417
     88       C      2       4.000          4.417                        -0.417
     89       H      1       1.000          0.581                         0.419
     90       C      2       4.000          4.002                        -0.002
     91       H      1       1.000          0.581                         0.419
     92       H      1       1.000          0.581                         0.419
     93       C      2       4.000          4.003                        -0.003
     94       H      1       1.000          0.581                         0.419
     95       C      2       4.000          4.417                        -0.417
     96       C      2       4.000          4.417                        -0.417
     97       C      2       4.000          4.417                        -0.417
     98       C      2       4.000          4.417                        -0.417
     99       H      1       1.000          0.581                         0.419
    100       C      2       4.000          4.002                        -0.002
    101       H      1       1.000          0.581                         0.419
    102       H      1       1.000          0.581                         0.419
    103       C      2       4.000          4.003                        -0.003
    104       H      1       1.000          0.581                         0.419
    105       C      2       4.000          4.417                        -0.417
    106       C      2       4.000          4.417                        -0.417
    107       C      2       4.000          4.417                        -0.417
    108       C      2       4.000          4.417                        -0.417
    109       H      1       1.000          0.581                         0.419
    110       C      2       4.000          4.003                        -0.003
    111       H      1       1.000          0.581                         0.419
    112       H      1       1.000          0.582                         0.418
    113       C      2       4.000          4.005                        -0.005
    114       H      1       1.000          0.582                         0.418
    115       C      2       4.000          4.416                        -0.416
    116       C      2       4.000          4.416                        -0.416
    117       C      2       4.000          4.419                        -0.419
    118       C      2       4.000          4.419                        -0.419
    119       H      1       1.000          0.578                         0.422
    120       C      2       4.000          4.415                        -0.415
    121       H      1       1.000          0.578                         0.422
    122       H      1       1.000          0.577                         0.423

  Total Charge                                                            0.061
 !-----------------------------------------------------------------------------!

 ENERGY| Total FORCE_EVAL ( QS ) energy (a.u.):             -437.506566283806364


 -------------------------------------------------------------------------------
 -                                                                             -
 -                                DBCSR STATISTICS                             -
 -                                                                             -
 -------------------------------------------------------------------------------
 COUNTER                                    TOTAL       BLAS       SMM       ACC
 flops     1 x    29 x     1                80968       0.0%    100.0%      0.0%
 flops     1 x     1 x    29               125802       0.0%    100.0%      0.0%
 flops     1 x    32 x     1               446720       0.0%    100.0%      0.0%
 flops     1 x    29 x     4               495088       0.0%    100.0%      0.0%
 flops     4 x    29 x     1               495088       0.0%    100.0%      0.0%
 flops     1 x     1 x    32               694080       0.0%    100.0%      0.0%
 flops     1 x     4 x    29               741936       0.0%    100.0%      0.0%
 flops     4 x     1 x    29               743328       0.0%    100.0%      0.0%
 flops     1 x    32 x     4              2731520       0.0%    100.0%      0.0%
 flops     4 x    32 x     1              2731520       0.0%    100.0%      0.0%
 flops     4 x    29 x     4              2921344       0.0%     83.2%     16.8%
 flops     1 x     4 x    32              4093440       0.0%    100.0%      0.0%
 flops     4 x     1 x    32              4101120       0.0%    100.0%      0.0%
 flops     4 x     4 x    29              4482240       0.0%    100.0%      0.0%
 flops     4 x    32 x     4             16117760       0.0%     83.4%     16.6%
 flops     4 x     4 x    32             24729600       0.0%    100.0%      0.0%
 flops inhomo. stacks                           0       0.0%      0.0%      0.0%
 flops total                        65.731554E+06       0.0%     95.2%      4.8%
 flops max/rank                      5.816752E+06       0.0%     94.5%      5.5%
 matmuls inhomo. stacks                         0       0.0%      0.0%      0.0%
 matmuls total                             133278       0.0%     97.6%      2.4%
 number of processed stacks                  1152       0.0%     99.0%      1.0%
 average stack size                                     0.0     114.1     262.3
 marketing flops                   154.457888E+06
 -------------------------------------------------------------------------------
 # multiplications                              4
 max memory usage/rank               2.608734E+09
 # max total images/rank                        3
 # max 3D layers                                1
 # MPI messages exchanged                     384
 MPI messages size (bytes):
  total size                        12.463504E+06
  min size                          11.600000E+03
  max size                          51.600000E+03
  average size                      32.457041E+03
 MPI breakdown and total messages size (bytes):
             size <=      128                   0                        0
       128 < size <=     8192                   0                        0
      8192 < size <=    32768                 144                  2044224
     32768 < size <=   131072                 240                 10419280
    131072 < size <=  4194304                   0                        0
   4194304 < size <= 16777216                   0                        0
  16777216 < size                               0                        0
 -------------------------------------------------------------------------------

 *** WARNING in dbcsr_mm.F:295 :: Using a non-square number of MPI ranks ***
 *** might lead to poor performance. Used ranks: 12 Suggested: 9 25      ***

 -------------------------------------------------------------------------------
 -                                                                             -
 -                      DBCSR MESSAGE PASSING PERFORMANCE                      -
 -                                                                             -
 -------------------------------------------------------------------------------
 ROUTINE             CALLS      AVE VOLUME [Bytes]
 MP_Group                5
 MP_Bcast               17                     12.
 MP_Allreduce           67                     20.
 MP_Alltoall           112                  22180.
 MP_Wait               192
 MP_ISend               96                  13207.
 MP_IRecv               96                  13089.
 MP_Memory             422
 -------------------------------------------------------------------------------

 MEMORY| Estimated peak process memory [MiB]                                2488

 -------------------------------------------------------------------------------
 ----                             MULTIGRID INFO                            ----
 -------------------------------------------------------------------------------
 count for grid        1:          23566          cutoff [a.u.]          300.00
 count for grid        2:          24441          cutoff [a.u.]          100.00
 count for grid        3:          29419          cutoff [a.u.]           33.33
 count for grid        4:          26554          cutoff [a.u.]           11.11
 count for grid        5:          32947          cutoff [a.u.]            3.70
 total gridlevel count  :         136927

 -------------------------------------------------------------------------------
 -                                                                             -
 -                         MESSAGE PASSING PERFORMANCE                         -
 -                                                                             -
 -------------------------------------------------------------------------------

 ROUTINE             CALLS      AVE VOLUME [Bytes]
 MP_Group                5
 MP_Bcast              271                1388317.
 MP_Allreduce          106                   9910.
 MP_Sync                 5
 MP_Alltoall            68              116407944.
 MP_ISendRecv          165                 564696.
 MP_Wait               230
 MP_ISend               39               13853867.
 MP_IRecv               39               13853867.
 MP_Recv                 5                  86528.
 MP_Write_All            1                   5280.
 -------------------------------------------------------------------------------


 -------------------------------------------------------------------------------
 -                                                                             -
 -                           R E F E R E N C E S                               -
 -                                                                             -
 -------------------------------------------------------------------------------
 
 CP2K version 7.1, the CP2K developers group (2019).
 CP2K is freely available from https://www.cp2k.org/ .

 Schuett, Ole; Messmer, Peter; Hutter, Juerg; VandeVondele, Joost. 
 Electronic Structure Calculations on Graphics Processing Units, John
 Wiley & Sons, Ltd, 173-190 (2016). 
 GPU-Accelerated Sparse Matrix-Matrix Multiplication for
 Linear Scaling Density Functional Theory.
 https://dx.doi.org/10.1002/9781118670712.ch8

 Borstnik, U; VandeVondele, J; Weber, V; Hutter, J. 
 PARALLEL COMPUTING, 40 (5-6), 47-58 (2014). 
 Sparse matrix multiplication: The distributed block-compressed sparse
 row library.
 https://dx.doi.org/10.1016/j.parco.2014.03.012

 Hutter, J; Iannuzzi, M; Schiffmann, F; VandeVondele, J. 
 WIREs Comput Mol Sci., 4 (1), 15-25 (2014). 
 CP2K: atomistic simulations of condensed matter systems.
 https://dx.doi.org/10.1002/wcms.1159

 Marek, A; Blum, V; Johanni, R; Havu, V; Lang, B; Auckenthaler, T;
 Heinecke, A; Bungartz, H; Lederer, H. 
 Journal of Physics: Condensed Matter, 26 (21), (2014). 
 The ELPA library: scalable parallel eigenvalue solutions for
 electronic structure
 theory and computational science.
 https://dx.doi.org/10.1088/0953-8984/26/21/213201

 VandeVondele, J; Hutter, J. 
 JOURNAL OF CHEMICAL PHYSICS, 127 (11), 114105 (2007). 
 Gaussian basis sets for accurate calculations on molecular systems in
 gas and condensed phases.
 https://dx.doi.org/10.1063/1.2770708

 Krack, M. 
 THEORETICAL CHEMISTRY ACCOUNTS, 114 (1-3), 145-152 (2005). 
 Pseudopotentials for H to Kr optimized for gradient-corrected
 exchange-correlation functionals.
 https://dx.doi.org/10.1007/s00214-005-0655-y

 VandeVondele, J; Krack, M; Mohamed, F; Parrinello, M; Chassaing, T;
 Hutter, J. COMPUTER PHYSICS COMMUNICATIONS, 167 (2), 103-128 (2005). 
 QUICKSTEP: Fast and accurate density functional calculations using a
 mixed Gaussian and plane waves approach.
 https://dx.doi.org/10.1016/j.cpc.2004.12.014

 Frigo, M; Johnson, SG. 
 PROCEEDINGS OF THE IEEE, 93 (2), 216-231 (2005). 
 The design and implementation of FFTW3.
 https://dx.doi.org/10.1109/JPROC.2004.840301

 Hartwigsen, C; Goedecker, S; Hutter, J. 
 PHYSICAL REVIEW B, 58 (7), 3641-3662 (1998). 
 Relativistic separable dual-space Gaussian pseudopotentials from H to Rn.
 https://dx.doi.org/10.1103/PhysRevB.58.3641

 Lippert, G; Hutter, J; Parrinello, M. 
 MOLECULAR PHYSICS, 92 (3), 477-487 (1997). 
 A hybrid Gaussian and plane wave density functional scheme.
 https://dx.doi.org/10.1080/002689797170220

 Perdew, JP; Burke, K; Ernzerhof, M. 
 PHYSICAL REVIEW LETTERS, 77 (18), 3865-3868 (1996). 
 Generalized gradient approximation made simple.
 https://dx.doi.org/10.1103/PhysRevLett.77.3865

 Goedecker, S; Teter, M; Hutter, J. 
 PHYSICAL REVIEW B, 54 (3), 1703-1710 (1996). 
 Separable dual-space Gaussian pseudopotentials.
 https://dx.doi.org/10.1103/PhysRevB.54.1703


 -------------------------------------------------------------------------------
 -                                                                             -
 -                                T I M I N G                                  -
 -                                                                             -
 -------------------------------------------------------------------------------
 SUBROUTINE                       CALLS  ASD         SELF TIME        TOTAL TIME
                                MAXIMUM       AVERAGE  MAXIMUM  AVERAGE  MAXIMUM
 CP2K                                 1  1.0    0.275    0.279   34.399   34.400
 qs_energies                          1  2.0    0.000    0.000   32.121   32.121
 scf_env_do_scf                       1  3.0    0.000    0.000   24.594   24.595
 scf_env_do_scf_inner_loop            2  4.0    0.000    0.000   24.594   24.595
 pw_transfer                         50  9.3    0.004    0.005   19.214   20.939
 fft_wrap_pw1pw2                     46 10.3    0.001    0.001   19.042   20.764
 fft_wrap_pw1pw2_300                 26 11.4    1.750    1.831   18.295   20.064
 qs_ks_update_qs_env                  2  5.0    0.000    0.000   19.227   19.229
 rebuild_ks_matrix                    2  6.0    0.000    0.000   19.227   19.229
 qs_ks_build_kohn_sham_matrix         2  7.0    0.000    0.000   19.227   19.229
 fft3d_ps                            46 12.3    7.817    7.967   13.851   15.468
 qs_vxc_create                        2  8.0    0.000    0.000   14.308   14.347
 xc_vxc_pw_create                     2  9.0    0.154    0.180   14.308   14.347
 xc_rho_set_and_dset_create           2 10.0    0.064    0.071    7.840    8.081
 qs_rho_update_rho                    3  5.0    0.000    0.000    6.699    6.908
 calculate_rho_elec                   3  6.0    0.778    0.857    6.698    6.908
 init_scf_run                         1  3.0    0.000    0.000    5.948    5.948
 scf_env_initial_rho_setup            1  4.0    0.000    0.000    5.929    5.929
 density_rs2pw                        3  7.0    0.000    0.000    5.606    5.646
 yz_to_x                             24 12.7    1.798    1.872    2.676    4.414
 x_to_yz                             22 14.0    2.698    2.710    3.352    3.488
 mp_alltoall_z22v                    46 14.3    1.532    3.421    1.532    3.421
 xc_functional_eval                   2 11.0    0.000    0.000    2.724    2.955
 pbe_lda_eval                         2 12.0    2.724    2.955    2.724    2.955
 calculate_first_density_matrix       1  5.0    0.000    0.001    2.741    2.912
 dbcsr_multiply_generic               4  8.2    0.000    0.000    2.719    2.892
 multiply_cannon                      4  9.2    0.001    0.001    2.699    2.873
 sum_up_and_integrate                 2  8.0    0.044    0.044    2.707    2.709
 integrate_v_rspace                   2  9.0    0.396    0.413    2.664    2.666
 potential_pw2rs                      2 10.0    0.006    0.007    2.251    2.252
 calculate_dm_sparse                  3  6.0    0.000    0.000    1.649    1.821
 cp_dbcsr_plus_fm_fm_t_native         3  7.0    0.000    0.000    1.649    1.821
 rs_pw_transfer                      28  8.9    0.001    0.001    1.774    1.818
 pw_gather_p                         24 11.7    1.690    1.817    1.690    1.817
 pw_scatter_p                        22 13.0    1.683    1.786    1.683    1.786
 acc_transpose_blocks                24 10.2    0.000    0.000    1.381    1.621
 acc_transpose_blocks_kernels        24 11.2    1.379    1.618    1.379    1.618
 qs_init_subsys                       1  2.0    0.001    0.001    1.565    1.565
 qs_env_setup                         1  3.0    0.000    0.000    1.551    1.552
 qs_env_rebuild_pw_env                2  3.5    0.000    0.000    1.551    1.551
 pw_env_rebuild                       1  5.0    0.000    0.000    1.551    1.551
 pw_grid_setup                        5  6.0    0.001    0.001    1.543    1.543
 pw_grid_setup_internal               5  7.0    0.019    0.020    1.542    1.542
 pw_grid_sort                         5  8.0    0.975    1.001    1.259    1.288
 make_basis_sm                        1  6.0    0.000    0.000    1.077    1.077
 cp_dbcsr_sm_fm_multiply              1  7.0    0.000    0.000    1.074    1.074
 cp_dbcsr_sm_fm_multiply_core         1  8.0    0.000    0.000    1.071    1.073
 pw_derive                           12 10.5    0.982    1.029    0.982    1.029
 qs_energies_init_hamiltonians        1  3.0    0.000    0.000    1.005    1.005
 gspace_mixing                        1  5.0    0.018    0.018    0.981    0.981
 qs_env_update_s_mstruct              1  4.0    0.000    0.000    0.964    0.966
 calculate_rho_core                   1  5.0    0.022    0.023    0.928    0.930
 rs_pw_transfer_RS2PW_300             5  8.4    0.628    0.653    0.820    0.849
 mp_waitall_1                       383 11.6    0.574    0.823    0.574    0.823
 mixing_init                          1  5.0    0.812    0.815    0.815    0.815
 multiply_cannon_metrocomm3          24 10.2    0.000    0.000    0.429    0.717
 fft_wrap_pw1pw2_100                  5 11.2    0.056    0.064    0.635    0.713
 -------------------------------------------------------------------------------

 The number of warnings for this run is : 1
 
 -------------------------------------------------------------------------------
  **** **** ******  **  PROGRAM ENDED AT                 2020-10-08 14:27:54.738
 ***** ** ***  *** **   PROGRAM RAN ON                                  nid05840
 **    ****   ******    PROGRAM RAN BY                                    keimre
 ***** **    ** ** **   PROGRAM PROCESS ID                                 14875
  **** **  *******  **  PROGRAM STOPPED IN /scratch/snx3000/keimre/cp2k-polyphen
                                           ylene/12-uc
