     122
 i =       27, E =      -439.2467872427
  H         8.2510323796       10.4988554927        8.0000035380
  C         9.3415192477       10.5021122983        7.9999818845
  H         9.5097407009       12.6562401092        8.0000102804
  H         9.5219779891        8.3487004607        7.9999901570
  C        10.0542374859        9.3010475851        8.0000175219
  C        10.0476587707       11.7071284009        8.0000287820
  C        11.4481242685        9.3064306789        7.9999840647
  C        11.4417288334       11.7096451772        7.9999970718
  H        11.9653468277        8.3483404038        7.9999949828
  C        12.1836424993       10.5099920923        8.0000116766
  H        11.9536737935       12.6706788910        8.0000180029
  H        13.9097928543       12.6719883270        7.9999976419
  C        13.6700036616       10.5131226314        8.0000294629
  H        13.9160446869        8.3550244798        8.0000255705
  C        14.4166478423       11.7082327661        7.9999856951
  C        14.4201626535        9.3201719789        7.9999982272
  C        15.8098311577        9.3215161207        8.0000281980
  C        15.8065141021       11.7104242172        8.0000155179
  H        16.3168673909        8.3577638321        8.0000225051
  C        16.5566769651       10.5170069067        8.0000092831
  H        16.3113338909       12.6753323699        8.0000048796
  H        18.2775848102       12.6780005024        7.9999780301
  C        18.0384507421       10.5189792032        8.0000118873
  H        18.2834819333        8.3601869963        8.0000369806
  C        18.7854035619       11.7147108377        7.9999897336
  C        18.7883774111        9.3250583593        8.0000191042
  C        20.1776805329        9.3268923384        8.0000501720
  C        20.1748502150       11.7166224621        8.0000226725
  H        20.6853683682        8.3635192742        8.0000234108
  C        20.9247415415       10.5226612926        7.9999425363
  H        20.6798954043       12.6813870715        7.9999723927
  H        22.6471413232       12.6830077142        8.0000486114
  C        22.4060535790       10.5238861792        8.0000837516
  H        22.6491875068        8.3648547019        7.9999836518
  C        23.1540009322       11.7191942504        7.9999804240
  C        23.1549268023        9.3292552881        7.9999471376
  C        24.5441448763        9.3297801239        8.0000032219
  C        24.5432736161       11.7196559200        8.0000359069
  H        25.0509415673        8.3659381216        7.9999768631
  C        25.2921156709       10.5248957682        8.0000086181
  H        25.0494845886       12.6838688524        8.0000383844
  H        27.0156123671       12.6836980951        7.9999823555
  C        26.7731039993       10.5249113700        7.9999678093
  H        27.0147314843        8.3657495490        8.0000083369
  C        27.5218669087       11.7196141578        8.0000097924
  C        27.5212402145        9.3297550676        8.0000230057
  C        28.9104307676        9.3293462688        8.0000107701
  C        28.9111782392       11.7192763719        7.9999991788
  H        29.4164373719        8.3650944341        8.0000057673
  C        29.6592863834       10.5240723269        7.9999624796
  H        29.4175556997       12.6833450220        7.9999806927
  H        31.3837948108       12.6820170420        8.0000199833
  C        31.1404840132       10.5231633398        8.0000542043
  H        31.3811215749        8.3639998280        7.9999911021
  C        31.8896081045       11.7176373972        7.9999770898
  C        31.8882224619        9.3276951390        7.9999614849
  C        33.2774942359        9.3267055958        7.9999949122
  C        33.2788207887       11.7165596451        8.0000100474
  H        33.7831598398        8.3622200496        7.9999849354
  C        34.0266927135       10.5212323858        8.0000193874
  H        33.7859594218       12.6802215270        8.0000155163
  H        35.7488664014       12.6801494453        7.9999870342
  C        35.5079022549       10.5211383424        7.9999504119
  H        35.7512459992        8.3621134182        7.9999973497
  C        36.2558661834       11.7164153147        8.0000249459
  C        36.2570072170        9.3265466093        8.0000290113
  C        37.6463017878        9.3274371631        7.9999993008
  C        37.6451061160       11.7174018374        7.9999956396
  H        38.1532074878        8.3636503818        7.9999982214
  C        38.3941219743       10.5228537032        7.9999702210
  H        38.1509824263       12.6817608580        7.9999936382
  H        40.1172561839       12.6824961896        7.9999980540
  C        39.8752876149       10.5234249222        8.0000720716
  H        40.1174720382        8.3644433405        8.0000138780
  C        40.6237204667       11.7184225963        7.9999489788
  C        40.6238041990        9.3285135475        7.9999559523
  C        42.0129434325        9.3284517077        8.0000433886
  C        42.0130109523       11.7183099243        8.0000359183
  H        42.5192932597        8.3643775762        8.0000101183
  C        42.7614576097       10.5233395028        7.9999748420
  H        42.5196102771       12.6823058755        7.9999984818
  H        44.4848451894       12.6820005342        8.0000102206
  C        44.2425651739       10.5230906539        8.0000204010
  H        44.4842509240        8.3639286869        8.0000185231
  C        44.9911762873       11.7178940512        8.0000035055
  C        44.9907504657        9.3279399456        8.0000091224
  C        46.3799986582        9.3276911683        8.0000213515
  C        46.3804310610       11.7176128325        8.0000179324
  H        46.8861977092        8.3635159227        8.0000074396
  C        47.1286022245       10.5225354622        7.9999682821
  H        46.8870977305       12.6815392094        7.9999966348
  H        48.8515482579       12.6813088572        8.0000079340
  C        48.6097846187       10.5223952690        8.0000347483
  H        48.8518337478        8.3633724007        7.9999738559
  C        49.3581061146       11.7173254638        7.9999739927
  C        49.3581943210        9.3274705697        7.9999579074
  C        50.7474775546        9.3275769021        8.0000141737
  C        50.7474031401       11.7173271146        8.0000289899
  H        51.2539937430        8.3635622252        7.9999763548
  C        51.4957327663       10.5224993447        7.9999513344
  H        51.2539155800       12.6813428210        8.0000038878
  H        53.2194774347       12.6814142361        7.9999854541
  C        52.9773475384       10.5226557640        8.0000875524
  H        53.2199971451        8.3638705915        8.0000525111
  C        53.7256171952       11.7172073169        7.9999283779
  C        53.7258719036        9.3282282984        7.9999643153
  C        55.1155865555        9.3287796595        8.0000850530
  C        55.1153840899       11.7169756432        8.0000530052
  H        55.6210861150        8.3643312318        8.0000291048
  C        55.8637860640       10.5229695405        7.9999149416
  H        55.6208444656       12.6814466699        7.9999664830
  H        57.5739913411       12.6840873322        7.9999998651
  C        57.3500695387       10.5229974528        8.0000218833
  H        57.5741658886        8.3618403607        7.9999713047
  C        58.0887211145       11.7246137097        7.9999920986
  C        58.0887607129        9.3213896846        7.9999756356
  C        59.4826793817        9.3199803315        7.9999638341
  C        59.4826930356       11.7260848040        7.9999776308
  H        60.0177591995        8.3692201150        7.9999683812
  C        60.1921202234       10.5230267539        7.9999972369
  H        60.0177765176       12.6767940497        7.9999968116
  H        61.2825847009       10.5228723765        7.9999790173
