    2986
 i =       88, E =    -99276.6009487579
  O        39.9999242143       40.4043092790       46.8757197838
  C        39.9999237767       40.4043091152       45.7314433512
 Au        32.8263603082       12.4494278614       17.5733136743
 Au        35.6922367344       12.1475680042       17.5844667273
 Au        38.5659344215       12.1810479653       17.5642389411
 Au        41.4341149242       12.1808601850       17.5642612877
 Au        44.3076909182       12.1478011563       17.5845559968
 Au        47.1737425182       12.4494534464       17.5732264208
 Au        28.2043707295       14.8173535258       17.5546979776
 Au        31.0962139432       14.7068076477       17.5817114848
 Au        34.1439919163       14.9692539060       17.5560434328
 Au        37.0662459978       14.8748942711       17.5664309022
 Au        39.9999245599       14.8837898638       17.5636983182
 Au        42.9337562497       14.8749630801       17.5664216131
 Au        45.8560227578       14.9693372666       17.5560716010
 Au        48.9037637155       14.7066525027       17.5817410028
 Au        51.7955271906       14.8172467049       17.5546607986
 Au        23.8964301123       17.5098031909       17.6108070187
 Au        26.7170593975       17.3719135032       17.5587762570
 Au        29.6938484092       17.4267874495       17.6015273623
 Au        32.6035456877       17.4635236372       17.5867543516
 Au        47.3963937591       17.4634571450       17.5867291477
 Au        50.3060882017       17.4266660957       17.6014717306
 Au        53.2829577284       17.3720178583       17.5588674508
 Au        56.1035010938       17.5096941183       17.6107513426
 Au        19.5060362882       20.2059343524       17.6195010291
 Au        22.3199131071       19.9243905961       17.5517957316
 Au        25.3077305035       20.0315988058       17.6301916817
 Au        54.6922753149       20.0316045997       17.6301025075
 Au        57.6800710391       19.9243767577       17.5518486682
 Au        60.4937493369       20.2057590569       17.6193274470
 Au        17.9745071104       22.6734577563       17.5998952771
 Au        20.9104113201       22.6375559431       17.6249954449
 Au        23.7990831276       22.5516827636       17.5683348987
 Au        56.2009626147       22.5516984825       17.5683170097
 Au        59.0895269309       22.6376775883       17.6248570777
 Au        62.0255344569       22.6734332149       17.5998664055
 Au        16.4704287922       25.1536798198       17.5469410443
 Au        19.3952800320       25.1594873375       17.6357881140
 Au        60.6048490555       25.1594770586       17.6358641631
 Au        63.5297702389       25.1538964409       17.5470662174
 Au        15.0091737422       27.6841906898       17.5468937749
 Au        17.9178097101       27.6767234168       17.6325459589
 Au        62.0821146262       27.6765567658       17.6324084028
 Au        64.9910036816       27.6842041499       17.5469809292
 Au        13.6133720399       30.2268771516       17.5997750056
 Au        16.4766955923       30.2144923013       17.6358579810
 Au        63.5232977873       30.2143745230       17.6357909763
 Au        66.3866162433       30.2267629714       17.5998258357
 Au        12.2423134676       32.7872075810       17.6192335069
 Au        15.0504631687       32.7874286497       17.6248571572
 Au        64.9496376781       32.7874964563       17.6248569415
 Au        67.7576892595       32.7871230710       17.6194834301
 Au        13.4052361074       35.3648400356       17.5518850478
 Au        16.4204456519       35.3318970356       17.5682852227
 Au        63.5796340499       35.3319233997       17.5682895731
 Au        66.5946840754       35.3648783978       17.5518448492
 Au        12.1024805685       37.9377676725       17.6107552547
 Au        14.9921778543       37.8986475419       17.6300859615
 Au        65.0078135210       37.8987197052       17.6300940524
 Au        67.8975531501       37.9375938734       17.6106964981
 Au        13.3937396323       40.4491538898       17.5588695658
 Au        66.6062222395       40.4489772088       17.5588845495
 Au        11.9248171435       43.0142044721       17.5547857983
 Au        14.9293353113       42.9995453426       17.6014940908
 Au        65.0706085186       42.9994535300       17.6016915213
 Au        68.0749760035       43.0140453237       17.5546704022
 Au        13.2750352196       45.5737776761       17.5816887179
 Au        16.4159039672       45.5010026094       17.5867831431
 Au        63.5839275840       45.5010739147       17.5867342692
 Au        66.7249123792       45.5739502898       17.5818103461
 Au        12.1849834718       48.2008191974       17.5732564408
 Au        15.0263856364       48.0820467491       17.5561084151
 Au        64.9738156434       48.0820621013       17.5560529218
 Au        67.8149110717       48.2007357145       17.5732957452
 Au        13.3573429173       50.8336587591       17.5845868214
 Au        16.4056248467       50.6598770360       17.5664696239
 Au        63.5942885442       50.6600268248       17.5663620954
 Au        66.6426542190       50.8335213058       17.5843293985
 Au        14.8229056501       53.3057691908       17.5640438503
 Au        17.8804945546       53.1963789211       17.5637084502
 Au        62.1193841665       53.1965370102       17.5637381149
 Au        65.1771176530       53.3057967997       17.5641065621
 Au        16.2571078651       55.7896833526       17.5640108831
 Au        19.3399395487       55.7418682099       17.5663720591
 Au        60.6604033740       55.7415952398       17.5664188174
 Au        63.7427551402       55.7895646396       17.5639883702
 Au        17.6651772229       58.2950687328       17.5844158586
 Au        20.8825343573       58.2251157136       17.5560899785
 Au        23.8125258421       58.3119496745       17.5866738055
 Au        56.1874343677       58.3117533246       17.5867992321
 Au        59.1175354921       58.2251316217       17.5562164722
 Au        62.3349178692       58.2951702401       17.5842357438
 Au        19.3593277099       60.6266942706       17.5730538112
 Au        22.1792522989       60.9958089597       17.5817463183
 Au        25.2356519491       60.8501419114       17.6017227409
 Au        54.7644362297       60.8501550999       17.6015090951
 Au        57.8207334489       60.9959299565       17.5817462049
 Au        60.6406468231       60.6265855987       17.5731245039
 Au        23.7209018825       63.4448125400       17.5547533015
 Au        26.6767027444       63.4556018973       17.5588538900
 Au        29.6844067371       63.3463449490       17.6300875173
 Au        32.6212995757       63.3927460578       17.5682855970
 Au        47.3786464543       63.3927557433       17.5683473504
 Au        50.3154306390       63.3463320605       17.6301060735
 Au        53.3232943066       63.4554346234       17.5588058380
 Au        56.2791578082       63.4447999589       17.5547370724
 Au        28.2058673972       65.8296195546       17.6107716750
 Au        31.0853513474       65.9876360961       17.5517291193
 Au        34.1399524198       65.8513103923       17.6249268414
 Au        37.0816086849       65.9029772207       17.6358193975
 Au        39.9999702637       65.9239669511       17.6324605615
 Au        42.9183242175       65.9029183087       17.6356935788
 Au        45.8599102353       65.8514615324       17.6248659930
 Au        48.9146460396       65.9875479328       17.5518559427
 Au        51.7941353564       65.8295622604       17.6107688098
 Au        32.7364667433       68.2834712622       17.6194566130
 Au        35.6391784159       68.3763096631       17.5998655783
 Au        38.5389267591       68.4394130894       17.5468356341
 Au        41.4609151864       68.4393205177       17.5467701565
 Au        44.3609433860       68.3762898572       17.5997501869
 Au        47.2637070190       68.2832846681       17.6193704558
 Au        34.2783307059       13.0990012376       19.8929576745
 Au        37.1543461775       13.0021150359       19.8968986097
 Au        40.0000106417       13.0283882134       19.8983456727
 Au        42.8455126825       13.0018635097       19.8969818361
 Au        45.7217044917       13.0990755882       19.8929462670
 Au        27.0092836271       15.8001902832       19.9424589635
 Au        29.8060726163       15.5066119318       19.9821945644
 Au        32.6073066378       15.6634431599       19.8639490057
 Au        35.6021160473       15.7485819434       19.9716917833
 Au        38.5317636771       15.7199643882       19.9513426264
 Au        41.4682887823       15.7199304048       19.9514074606
 Au        44.3979113297       15.7486501823       19.9716488838
 Au        47.3926796157       15.6634696727       19.8639185697
 Au        50.1940590926       15.5069669824       19.9820301290
 Au        52.9908106648       15.8001139686       19.9426819090
 Au        22.4874300161       18.5123428413       20.0000704006
 Au        25.2959870429       18.0437208243       20.1375957008
 Au        28.2087251982       18.3789347768       19.9543816319
 Au        31.1605301080       18.2585887189       20.0193909752
 Au        48.8395743455       18.2584717030       20.0191641402
 Au        51.7912596889       18.3789791855       19.9544136841
 Au        54.7040069491       18.0437319471       20.1374704544
 Au        57.5125215854       18.5122932706       19.9999001693
 Au        20.8536507976       20.9195818236       20.0857374998
 Au        23.8228699612       20.9667011532       19.9901719762
 Au        26.7186746028       20.8409802407       20.0551732843
 Au        53.2813039199       20.8409787934       20.0550264333
 Au        56.1770435755       20.9667150019       19.9901563238
 Au        59.1462889594       20.9196563864       20.0856331787
 Au        19.2373177092       23.3080982206       20.0809076477
 Au        22.3193614539       23.4483903913       20.0113613557
 Au        57.6807164675       23.4484457262       20.0113869383
 Au        60.7625836857       23.3081641821       20.0808052677
 Au        17.7262829176       25.8734724118       19.9934997207
 Au        20.8049918834       25.9466294582       20.0092871936
 Au        59.1950000029       25.9466022407       20.0093377360
 Au        62.2736836655       25.8734926310       19.9935037568
 Au        16.2603062349       28.4121049500       19.9936142200
 Au        19.3417183829       28.4986197959       19.9911298121
 Au        60.6582108904       28.4986025667       19.9910699160
 Au        63.7396468730       28.4122137736       19.9934465084
 Au        14.7946367635       31.0035706520       20.0809232497
 Au        17.8634879433       31.0419417180       20.0093606004
 Au        62.1365922164       31.0420384718       20.0092287526
 Au        65.2054030179       31.0032719960       20.0805711784
 Au        13.5341498575       33.5971539915       20.0856770075
 Au        16.4569121855       33.6024374704       20.0113964876
 Au        63.5429997274       33.6025018803       20.0112088310
 Au        66.4660766601       33.5973927066       20.0853329792
 Au        12.2660082657       36.2157674185       19.9996164354
 Au        15.0593337304       36.1454848514       19.9900678318
 Au        64.9406584798       36.1453632645       19.9901149819
 Au        67.7341205189       36.2157815701       19.9998057731
 Au        13.2651412523       38.8822326417       20.1372675373
 Au        16.3988875972       38.7159916575       20.0551040920
 Au        63.6013516192       38.7159604018       20.0552174368
 Au        66.7346675370       38.8820708700       20.1372849858
 Au        12.1784074574       41.4875698951       19.9426926510
 Au        15.0115539841       41.2372751608       19.9547705443
 Au        64.9884722004       41.2372557505       19.9544259919
 Au        67.8214381803       41.4876176670       19.9428115710
 Au        13.3228493781       44.0566398355       19.9821775879
 Au        16.3829984860       43.8537526821       20.0191821555
 Au        63.6169212778       43.8537726619       20.0194271988
 Au        66.6774116309       44.0567551625       19.9821419531
 Au        14.8593224920       46.4041996879       19.8641936032
 Au        65.1410756158       46.4044406634       19.8639812701
 Au        13.4738320006       49.1337311249       19.8929950516
 Au        16.4302816727       48.9552501288       19.9715496057
 Au        63.5697332208       48.9551697880       19.9716096644
 Au        66.5262542850       49.1335950656       19.8929738062
 Au        14.8280215021       51.6733135133       19.8969262892
 Au        17.8705217538       51.5067942206       19.9514600700
 Au        62.1297085812       51.5069188438       19.9513403886
 Au        65.1719725984       51.6730959250       19.8967400705
 Au        16.2736227549       54.1243771057       19.8982926914
 Au        19.3387040088       54.0499254789       19.9514322170
 Au        60.6613212148       54.0499802527       19.9514763274
 Au        63.7264611518       54.1243729237       19.8982702565
 Au        17.6736148400       56.6018561773       19.8967241052
 Au        20.8283306067       56.5728457412       19.9718048784
 Au        59.1716784857       56.5728006101       19.9717611991
 Au        62.3263427840       56.6018890784       19.8966994794
 Au        19.1956602343       59.0443874807       19.8927705793
 Au        22.2524117609       59.2089272377       19.8640788695
 Au        25.2228398520       59.1643357613       20.0194837680
 Au        54.7772112044       59.1643177826       20.0193111038
 Au        57.7476517232       59.2090049659       19.8639854459
 Au        60.8042704186       59.0444936816       19.8927144033
 Au        23.5171456931       61.7135373316       19.9822343557
 Au        26.8030698860       61.6604002417       19.9546438579
 Au        29.6801495835       61.7196781034       20.0550250552
 Au        50.3197612983       61.7196469745       20.0551742214
 Au        53.1970346575       61.6603527397       19.9545127499
 Au        56.4826356155       61.7133526090       19.9821965446
 Au        25.1698654502       63.9889941938       19.9425929222
 Au        27.9696609998       64.3502048732       20.1373518327
 Au        31.2364840835       64.1648999946       19.9901000790
 Au        34.1373831759       64.2258455514       20.0114254616
 Au        37.0583458303       64.2881749285       20.0091515152
 Au        40.0000648517       64.2797011819       19.9909141336
 Au        42.9419446454       64.2883522372       20.0092575238
 Au        45.8624749417       64.2260466994       20.0113188967
 Au        48.7633886599       64.1649836609       19.9901112163
 Au        52.0304846254       64.3503380808       20.1373992756
 Au        54.8300061395       63.9889805091       19.9425748384
 Au        29.7789303207       66.5489104697       19.9997839815
 Au        32.6805732077       66.7597418915       20.0858681007
 Au        35.5571716450       66.9648951113       20.0806996151
 Au        38.5341498254       66.9915712108       19.9932362676
 Au        41.4658705975       66.9916006454       19.9932739647
 Au        44.4428773883       66.9649727250       20.0807150337
 Au        47.3194031283       66.7597720577       20.0857352789
 Au        50.2211618370       66.5489516587       19.9997519410
 Au        32.9358248340       14.0632064762       22.1714567813
 Au        35.7804998850       13.7942252120       22.2570146512
 Au        38.5874519485       13.8470764549       22.2565787877
 Au        41.4124604577       13.8469508387       22.2565347217
 Au        44.2194932015       13.7942404002       22.2570268150
 Au        47.0640871665       14.0632677656       22.1714883529
 Au        28.4316945044       16.6033982187       22.3120853124
 Au        31.2484489706       16.3239037892       22.4014381732
 Au        34.1293697051       16.6927426558       22.3269074720
 Au        37.0627798996       16.5886142681       22.3385544188
 Au        39.9998955111       16.5572044137       22.3492771452
 Au        42.9373501505       16.5886544302       22.3385674611
 Au        45.8705830257       16.6926834791       22.3269576050
 Au        48.7514618193       16.3240124512       22.4013411409
 Au        51.5682630710       16.6033579518       22.3120393579
 Au        23.9055913533       19.2535909987       22.3965600412
 Au        26.7549700640       18.9074641782       22.4921365117
 Au        29.6835625059       19.1989055726       22.3690057872
 Au        32.5917167979       19.1343071131       22.4212000667
 Au        47.4082088447       19.1342420925       22.4210318343
 Au        50.3164092872       19.1988945116       22.3689336875
 Au        53.2450412381       18.9073305639       22.4922865783
 Au        56.0941700135       19.2534321646       22.3964107469
 Au        22.2393066644       21.5794032456       22.5189023500
 Au        25.2641094086       21.7654827382       22.4259828217
 Au        28.1852809382       21.6793039807       22.4403283952
 Au        51.8146326858       21.6792442444       22.4403681331
 Au        54.7359081966       21.7654259039       22.4259522518
 Au        57.7604805142       21.5796019571       22.5188338929
 Au        18.0353001509       24.4441482906       22.4554091836
 Au        20.8346120024       24.1093972428       22.3439613360
 Au        23.7762406597       24.2345539228       22.4265082747
 Au        56.2236452941       24.2347501899       22.4263566444
 Au        59.1654628061       24.1095984681       22.3441240302
 Au        61.9647130636       24.4440391462       22.4554505490
 Au        16.5951581038       26.9130570832       22.4682595606
 Au        19.4899497020       26.8764355906       22.4089702836
 Au        22.3390292587       26.7921368981       22.3654776321
 Au        57.6609422503       26.7921398644       22.3655760611
 Au        60.5099351099       26.8764010794       22.4089707357
 Au        63.4047943980       26.9130763416       22.4681428592
 Au        15.1771693799       29.3949299501       22.4555453164
 Au        18.0108816712       29.4382949842       22.4089622420
 Au        20.8810584850       29.3874078539       22.3894866652
 Au        59.1188301872       29.3873882587       22.3896235163
 Au        61.9889874914       29.4383436075       22.4088470625
 Au        64.8227778443       29.3950880201       22.4554005447
 Au        16.2872310513       31.9862371970       22.3440522067
 Au        19.3627572628       31.9475258896       22.3655374323
 Au        60.6372885960       31.9476950449       22.3655153928
 Au        63.7127858313       31.9863811614       22.3439686693
 Au        14.7984062538       34.4675541935       22.5188380998
 Au        17.8665555849       34.4710758576       22.4265487094
 Au        62.1335900679       34.4711652346       22.4264549847
 Au        65.2018548394       34.4675310155       22.5188390784
 Au        13.6169104943       37.0736076406       22.3964243067
 Au        16.4716626629       36.9940821867       22.4258341180
 Au        63.5283758421       36.9941051345       22.4258542434
 Au        66.3830068992       37.0734004579       22.3964269951
 Au        14.7418783297       39.7143168202       22.4922861797
 Au        17.8577763109       39.5669089201       22.4404718649
 Au        62.1420888966       39.5669841106       22.4405064374
 Au        65.2580682359       39.7141970432       22.4921492848
 Au        13.5853286903       42.3185650385       22.3123068434
 Au        16.4590496002       42.1046107606       22.3688518493
 Au        63.5409807616       42.1046899382       22.3691345858
 Au        66.4147174257       42.3184975032       22.3122794348
 Au        14.7518563081       44.8975217103       22.4014359677
 Au        17.8573154497       44.6556520236       22.4212602367
 Au        62.1428081235       44.6556039083       22.4212742145
 Au        65.2481801463       44.8974934871       22.4013848876
 Au        13.6378949193       47.4895521475       22.1716608065
 Au        16.5115930579       47.2081641850       22.3270385911
 Au        63.4884557881       47.2080970141       22.3269844353
 Au        66.3620977690       47.4894497198       22.1717132560
 Au        14.8271850170       50.0878617584       22.2569643714
 Au        17.8882189758       49.8005022352       22.3382801197
 Au        62.1118903446       49.8003890644       22.3384857115
 Au        65.1727083330       50.0877512857       22.2567454695
 Au        16.2760897143       52.4926196598       22.2566603462
 Au        19.3295058300       52.3599517498       22.3491844516
 Au        60.6704392855       52.3600657380       22.3492483064
 Au        63.7236137876       52.4924292920       22.2564471401
 Au        17.6885929501       54.9389163119       22.2564882011
 Au        20.8254708558       54.8881638299       22.3386554035
 Au        59.1747794991       54.8881170725       22.3385198405
 Au        62.3114773967       54.9390342040       22.2565117356
 Au        19.0465353355       57.3961570025       22.2567062003
 Au        22.3824474662       57.3765207963       22.3270296377
 Au        25.2656254881       57.4871379138       22.4213026558
 Au        54.7344584691       57.4870816163       22.4210953322
 Au        57.6175032751       57.3765286516       22.3270164703
 Au        60.9534947493       57.3960879063       22.2567217492
 Au        20.7018210079       59.7252479486       22.1709460232
 Au        23.5034892806       60.0559374574       22.4017144668
 Au        26.7758847197       59.9734414540       22.3690753783
 Au        29.6727835591       60.0306712491       22.4403056877
 Au        50.3272129113       60.0306151388       22.4403847196
 Au        53.2241595600       59.9733917112       22.3690048718
 Au        56.4965036957       60.0559566314       22.4016574576
 Au        59.2980456294       59.7251897696       22.1709803218
 Au        25.1541118833       62.3554289730       22.3121997876
 Au        27.9877819767       62.6555521717       22.4924833188
 Au        31.2080081454       62.5177859117       22.4258686846
 Au        34.0901341729       62.5710858677       22.4263356142
 Au        37.0237125342       62.5371863698       22.3654235812
 Au        40.0000193863       62.5021592511       22.3894647704
 Au        42.9763811074       62.5370232209       22.3654870650
 Au        45.9098661798       62.5711834586       22.4266098844
 Au        48.7921479921       62.5176584482       22.4260015040
 Au        52.0123971668       62.6555094812       22.4925540240
 Au        54.8459199026       62.3554670199       22.3122431866
 Au        29.7116841924       64.9503723447       22.3968445274
 Au        32.5590237596       65.2302948683       22.5192469357
 Au        35.4522332696       65.1813417249       22.3439318383
 Au        38.5210605241       64.9624087540       22.4088246215
 Au        41.4791629272       64.9623840702       22.4087513066
 Au        44.5477882319       65.1813751976       22.3439504777
 Au        47.4409198165       65.2300365689       22.5190127803
 Au        50.2883655073       64.9502492164       22.3964507817
 Au        37.1417391094       67.4382314029       22.4551714952
 Au        40.0000452805       67.4511921407       22.4677931173
 Au        42.8583353520       67.4383257186       22.4552655556
 Au        34.3709527705       14.8648500925       24.5144038284
 Au        37.1708266562       14.7586341838       24.6192915303
 Au        39.9999436080       14.6131462891       24.6230800198
 Au        42.8290515022       14.7586922878       24.6193192435
 Au        45.6289620621       14.8648827614       24.5144621690
 Au        29.8875347546       17.4367414016       24.6691536861
 Au        32.7296617684       17.1492089193       24.8397373214
 Au        35.6728745134       17.3839200012       24.8502288098
 Au        38.5476336267       17.5140211135       24.7098500488
 Au        41.4522793420       17.5139691801       24.7096525585
 Au        44.3270701087       17.3838592493       24.8502599306
 Au        47.2702501064       17.1494787303       24.8397185927
 Au        50.1122929562       17.4370660567       24.6690924907
 Au        25.3809853389       20.0142018175       24.7594809100
 Au        28.2317210316       19.7624076066       24.8717332640
 Au        31.1564109252       20.0543660448       24.7836088480
 Au        34.0800838216       19.9338127020       24.7975145406
 Au        37.0254547256       20.0046284520       24.8253135249
 Au        39.9999641788       20.0349020611       24.8375834680
 Au        42.9745646005       20.0046192992       24.8253225170
 Au        45.9198910697       19.9337985294       24.7974071142
 Au        48.8436065222       20.0544364817       24.7833792421
 Au        51.7682456832       19.7622445993       24.8719746460
 Au        54.6187438197       20.0144831854       24.7596300085
 Au        20.9261434768       22.7610778595       24.8166438495
 Au        23.7634938942       22.3570026762       24.9293684095
 Au        26.7134399848       22.5932744778       24.8096266470
 Au        29.6462030554       22.5259452625       24.8250863526
 Au        50.3538497386       22.5260234933       24.8251564192
 Au        53.2864930797       22.5934930514       24.8096496700
 Au        56.2363396887       22.3569164033       24.9295426176
 Au        59.0738694540       22.7610405543       24.8168257262
 Au        19.3730369806       25.1985473952       24.8906626864
 Au        22.3601163640       25.2068819586       24.7467411828
 Au        25.2544856527       25.0747092897       24.8266470576
 Au        54.7453884483       25.0747196886       24.8265048624
 Au        57.6396784915       25.2068839819       24.7465000520
 Au        60.6269800132       25.1985175502       24.8905664939
 Au        17.9150917908       27.6749393035       24.9220143526
 Au        20.8762770805       27.7096633141       24.8196986794
 Au        23.8184219067       27.6853357779       24.7875656639
 Au        56.1817284982       27.6852773037       24.7876638909
 Au        59.1235957009       27.7095406631       24.8196409558
 Au        62.0848891432       27.6749213015       24.9218497589
 Au        16.4993163737       30.1755101432       24.8909360080
 Au        19.4257740184       30.2218629272       24.8198866631
 Au        22.3417552466       30.2304567427       24.7946392263
 Au        57.6582103640       30.2305414386       24.7947099444
 Au        60.5742941574       30.2220714457       24.8196258783
 Au        63.5006859809       30.1754767990       24.8907710371
 Au        15.1648426096       32.7392188125       24.8167071154
 Au        18.0000528003       32.7584076650       24.7465095402
 Au        20.8757651527       32.7818704596       24.7876840757
 Au        59.1242834363       32.7818375321       24.7876860510
 Au        61.9999166452       32.7584128860       24.7464128596
 Au        64.8352798571       32.7392299653       24.8165664902
 Au        16.2334920573       35.3985416460       24.9295807624
 Au        19.3332257521       35.3307371241       24.8266672829
 Au        60.6669328039       35.3307682040       24.8265934027
 Au        63.7663644374       35.3984537403       24.9294960506
 Au        15.0139646729       37.9707135246       24.7594130046
 Au        17.9137564963       37.8347900531       24.8094837918
 Au        62.0864149442       37.8348356384       24.8094478459
 Au        64.9862284133       37.9706606554       24.7594465426
 Au        16.2205008642       40.5656297660       24.8718708382
 Au        19.3215934914       40.4085219557       24.8251176060
 Au        60.6784087922       40.4084982098       24.8251428176
 Au        63.7792476523       40.5655389539       24.8716251185
 Au        15.0357926887       43.1628943642       24.6690822988
 Au        17.9366296356       42.9522464239       24.7835273144
 Au        62.0635174927       42.9521715865       24.7833824382
 Au        64.9642250104       43.1629893704       24.6691472073
 Au        16.2066960292       45.7685969972       24.8398753412
 Au        19.2934703433       45.5447806030       24.7976501055
 Au        60.7066260826       45.5446365612       24.7976993893
 Au        63.7933596544       45.7685584979       24.8400532884
 Au        15.0496506782       48.3325576991       24.5143551000
 Au        17.8821708049       48.1998177144       24.8500213837
 Au        20.8277277511       48.0600696164       24.8251851122
 Au        59.1723862737       48.0599844212       24.8253946217
 Au        62.1179020470       48.1997497712       24.8499962937
 Au        64.9502737388       48.3324732893       24.5143474673
 Au        16.3580068323       50.8102106867       24.6191890863
 Au        19.4321295544       50.6242069259       24.7096229524
 Au        22.3413757748       50.6210313743       24.8375234798
 Au        57.6587539353       50.6209434446       24.8376268831
 Au        60.5679545017       50.6241298580       24.7095993446
 Au        63.6420464031       50.8100879721       24.6192057530
 Au        17.6463975358       53.3329050326       24.6230056636
 Au        20.8842767162       53.1396496903       24.7094740729
 Au        23.8021899770       53.2122437941       24.8253632747
 Au        56.1977029012       53.2122894236       24.8252625180
 Au        59.1158131433       53.1396251041       24.7094910627
 Au        62.3536578443       53.3328508057       24.6230065102
 Au        19.1863992615       55.7103554600       24.6191801037
 Au        22.2087093773       55.6945590796       24.8504109319
 Au        25.2134892559       55.7983579743       24.7973715113
 Au        54.7864703302       55.7981743322       24.7972388593
 Au        57.7914653405       55.6944683119       24.8502721774
 Au        60.8136308108       55.7103471447       24.6192520392
 Au        20.6782794767       58.0819725222       24.5139968556