# Projected DOS for atomic kind H at iteration step i = 0, E(Fermi) =    -0.088683 a.u.
#     MO Eigenvalue [a.u.]      Occupation                 s                 p
       1         -1.012430        2.000000        0.00000000        0.00000000
       2         -0.476994        2.000000        0.00000000        0.00000000
       3         -0.458097        2.000000        0.24132578        0.03942214
       4         -0.454634        2.000000        0.22461971        0.09572162
       5         -0.454610        2.000000        0.22470412        0.09545609
       6         -0.454512        2.000000        0.22455743        0.09617000
       7         -0.454368        2.000000        0.22471759        0.09592433
       8         -0.450972        2.000000        0.21497303        0.12760197
       9         -0.450928        2.000000        0.21507174        0.12758480
      10         -0.450906        2.000000        0.21502541        0.12760520
      11         -0.450803        2.000000        0.21516335        0.12753080
      12         -0.443855        2.000000        0.20638003        0.15512487
      13         -0.443833        2.000000        0.20646913        0.15509211
      14         -0.443537        2.000000        0.20615774        0.15559455
      15         -0.443511        2.000000        0.20622761        0.15557723
      16         -0.440350        2.000000        0.20469678        0.15947126
      17         -0.440333        2.000000        0.20469487        0.15946743
      18         -0.440280        2.000000        0.20469120        0.15946081
      19         -0.440230        2.000000        0.20481758        0.15942325
      20         -0.440053        2.000000        0.20477800        0.15982914
      21         -0.440021        2.000000        0.20485225        0.15979847
      22         -0.439969        2.000000        0.20491135        0.15975645
      23         -0.439925        2.000000        0.20506024        0.15969166
      24         -0.430000        2.000000        0.20585982        0.15455746
      25         -0.429976        2.000000        0.20590351        0.15453403
      26         -0.429972        2.000000        0.20591324        0.15453767
      27         -0.429938        2.000000        0.20601676        0.15449413
      28         -0.426938        2.000000        0.20772055        0.15052468
      29         -0.426923        2.000000        0.20777301        0.15049976
      30         -0.426578        2.000000        0.20699808        0.14855104
      31         -0.426565        2.000000        0.20701855        0.14854795
      32         -0.424038        2.000000        0.20860020        0.14388585
      33         -0.424034        2.000000        0.20864084        0.14387652
      34         -0.423970        2.000000        0.20864754        0.14386961
      35         -0.423947        2.000000        0.20873084        0.14383284
      36         -0.423309        2.000000        0.20956657        0.14345935
      37         -0.423302        2.000000        0.20961079        0.14344695
      38         -0.423237        2.000000        0.20970920        0.14341585
      39         -0.423219        2.000000        0.20970622        0.14341823
      40         -0.415599        2.000000        0.21345137        0.12233492
      41         -0.415582        2.000000        0.21347713        0.12233412
      42         -0.415567        2.000000        0.21348567        0.12232596
      43         -0.415556        2.000000        0.21354725        0.12230402
      44         -0.414293        2.000000        0.21745275        0.12414967
      45         -0.414284        2.000000        0.21744301        0.12415086
      46         -0.414267        2.000000        0.21751333        0.12412240
      47         -0.414254        2.000000        0.21752292        0.12411911
      48         -0.407905        2.000000        0.21830017        0.09859085
      49         -0.407903        2.000000        0.21830363        0.09858777
      50         -0.406775        2.000000        0.22543495        0.10493736
      51         -0.406758        2.000000        0.22543231        0.10494766
      52         -0.405399        2.000000        0.22369612        0.09601528
      53         -0.405383        2.000000        0.22369120        0.09601149
      54         -0.405327        2.000000        0.22371961        0.09597076
      55         -0.405313        2.000000        0.22371643        0.09597659
      56         -0.404837        2.000000        0.22355585        0.09350361
      57         -0.404831        2.000000        0.22355663        0.09349743
      58         -0.404765        2.000000        0.22365024        0.09347635
      59         -0.404763        2.000000        0.22363890        0.09347695
      60         -0.402924        2.000000        0.22552261        0.08807298
      61         -0.402912        2.000000        0.22549694        0.08806417
      62         -0.402910        2.000000        0.22554593        0.08805883
      63         -0.402900        2.000000        0.22552191        0.08806779
      64         -0.401190        2.000000        0.22045073        0.07371341
      65         -0.401169        2.000000        0.22063627        0.07376294
      66         -0.401161        2.000000        0.22057596        0.07372991
      67         -0.401151        2.000000        0.22065793        0.07374013
      68         -0.400462        2.000000        0.01581797        0.03936655
      69         -0.397182        2.000000        0.01646004        0.03650213
      70         -0.397014        2.000000        0.01079754        0.02308960
      71         -0.396941        2.000000        0.00938146        0.01972415
      72         -0.396878        2.000000        0.23676771        0.07736487
      73         -0.396874        2.000000        0.23618889        0.07726153
      74         -0.396856        2.000000        0.23565156        0.07701125
      75         -0.396854        2.000000        0.23706241        0.07739976
      76         -0.396710        2.000000        0.01691990        0.03566603
      77         -0.396556        2.000000        0.01576167        0.03535446
      78         -0.394898        2.000000        0.21718326        0.04655173
      79         -0.394883        2.000000        0.21716292        0.04655893
      80         -0.394482        2.000000        0.22020797        0.04839510
      81         -0.394470        2.000000        0.22007115        0.04839051
      82         -0.394467        2.000000        0.22019792        0.04839597
      83         -0.394457        2.000000        0.22018104        0.04840457
      84         -0.393483        2.000000        0.01741613        0.03472831
      85         -0.393357        2.000000        0.01718347        0.03450285
      86         -0.393143        2.000000        0.01750032        0.03519446
      87         -0.392721        2.000000        0.01764124        0.03558919
      88         -0.391941        2.000000        0.22400859        0.04392147
      89         -0.391933        2.000000        0.22400382        0.04390888
      90         -0.391889        2.000000        0.22367436        0.04358329
      91         -0.391865        2.000000        0.22368072        0.04363082
      92         -0.391743        2.000000        0.18210517        0.01234411
      93         -0.391740        2.000000        0.18201286        0.01235334
      94         -0.391571        2.000000        0.18194238        0.01190963
      95         -0.391451        2.000000        0.21480083        0.03422966
      96         -0.391448        2.000000        0.21478477        0.03428883
      97         -0.391432        2.000000        0.21479550        0.03424367
      98         -0.391423        2.000000        0.21495478        0.03450700
      99         -0.391275        2.000000        0.20375400        0.02502308
     100         -0.391267        2.000000        0.20389763        0.02516480
     101         -0.391249        2.000000        0.20337406        0.02479455
     102         -0.391244        2.000000        0.20308062        0.02456289
     103         -0.391108        2.000000        0.18580268        0.01319111
     104         -0.391059        2.000000        0.18666755        0.01365164
     105         -0.390815        2.000000        0.19875602        0.02056257
     106         -0.390799        2.000000        0.19941701        0.02093337
     107         -0.390716        2.000000        0.18712816        0.01350321
     108         -0.390712        2.000000        0.18715234        0.01351741
     109         -0.390616        2.000000        0.18597408        0.01291806
     110         -0.390612        2.000000        0.18605337        0.01296251
     111         -0.390565        2.000000        0.18923959        0.01456006
     112         -0.390550        2.000000        0.18945149        0.01467328
     113         -0.390520        2.000000        0.18886384        0.01437715
     114         -0.390512        2.000000        0.18903360        0.01445714
     115         -0.389656        2.000000        0.23528031        0.04702541
     116         -0.389653        2.000000        0.23564831        0.04728539
     117         -0.389585        2.000000        0.23509762        0.04691030
     118         -0.389584        2.000000        0.23490342        0.04677127
     119         -0.389445        2.000000        0.18737597        0.01264027
     120         -0.389436        2.000000        0.18717036        0.01249797
     121         -0.389373        2.000000        0.18664422        0.01209135
     122         -0.389360        2.000000        0.18675120        0.01217954
     123         -0.388825        2.000000        0.23546055        0.04580926
     124         -0.388816        2.000000        0.22834609        0.04075555
     125         -0.388815        2.000000        0.21269211        0.02964169
     126         -0.388805        2.000000        0.24064302        0.04953238
     127         -0.388802        2.000000        0.24318590        0.05131772
     128         -0.388733        2.000000        0.18704005        0.01140821
     129         -0.388431        2.000000        0.24762438        0.05384973
     130         -0.388428        2.000000        0.24722999        0.05356049
     131         -0.388314        2.000000        0.19194421        0.01313963
     132         -0.388281        2.000000        0.19140098        0.01273797
     133         -0.388277        2.000000        0.19174140        0.01290361
     134         -0.388164        2.000000        0.19155545        0.01279100
     135         -0.388013        2.000000        0.20026987        0.01697159
     136         -0.388010        2.000000        0.20019441        0.01690307
     137         -0.387985        2.000000        0.20037188        0.01702543
     138         -0.387983        2.000000        0.20015646        0.01689396
     139         -0.387962        2.000000        0.20453811        0.01928291
     140         -0.387947        2.000000        0.20472991        0.01937600
     141         -0.387909        2.000000        0.20535598        0.01969725
     142         -0.387883        2.000000        0.20525564        0.01964866
     143         -0.386548        2.000000        0.19688546        0.01468425
     144         -0.386546        2.000000        0.19904132        0.01454663
     145         -0.386504        2.000000        0.20230453        0.01692134
     146         -0.386500        2.000000        0.20210027        0.01679810
     147         -0.386462        2.000000        0.02397572        0.02851389
     148         -0.386439        2.000000        0.19735247        0.01420799
     149         -0.386428        2.000000        0.19645866        0.01385852
     150         -0.386419        2.000000        0.19496212        0.01280444
     151         -0.386418        2.000000        0.19419331        0.01298098
     152         -0.386280        2.000000        0.02075244        0.02923919
     153         -0.386158        2.000000        0.02656622        0.02933082
     154         -0.386116        2.000000        0.20213627        0.02828754
     155         -0.386100        2.000000        0.21293896        0.02829062
     156         -0.386088        2.000000        0.21031555        0.02773590
     157         -0.386080        2.000000        0.21981344        0.02771202
     158         -0.386067        2.000000        0.06110501        0.02889150
     159         -0.384530        2.000000        0.24255772        0.03629884
     160         -0.384514        2.000000        0.24256938        0.03630662
     161         -0.384508        2.000000        0.24255591        0.03629134
     162         -0.384494        2.000000        0.24255872        0.03629997
     163         -0.383252        2.000000        0.01815376        0.02619552
     164         -0.383144        2.000000        0.20108014        0.01159887
     165         -0.383125        2.000000        0.20172423        0.01154311
     166         -0.383117        2.000000        0.20128074        0.01158267
     167         -0.383102        2.000000        0.20088909        0.01161413
     168         -0.383056        2.000000        0.02105816        0.02652679
     169         -0.382845        2.000000        0.01876236        0.02696938
     170         -0.382646        2.000000        0.01847278        0.02713300
     171         -0.382548        2.000000        0.01857375        0.02732949
     172         -0.382464        2.000000        0.01867578        0.02718759
     173         -0.382324        2.000000        0.01862211        0.02724412
     174         -0.381927        2.000000        0.20603215        0.01207892
     175         -0.381918        2.000000        0.20684661        0.01202062
     176         -0.381897        2.000000        0.20438622        0.01221423
     177         -0.381887        2.000000        0.20622620        0.01206964
     178         -0.381795        2.000000        0.02295534        0.02690809
     179         -0.381327        2.000000        0.20245165        0.00981200
     180         -0.381309        2.000000        0.20259283        0.00985759
     181         -0.380896        2.000000        0.20752872        0.01098130
     182         -0.380884        2.000000        0.20758105        0.01099880
     183         -0.380863        2.000000        0.20895564        0.01146799
     184         -0.380817        2.000000        0.20905352        0.01150656
     185         -0.380641        2.000000        0.22281515        0.01644366
     186         -0.380628        2.000000        0.22330183        0.01661643
     187         -0.380623        2.000000        0.22280838        0.01643415
     188         -0.380599        2.000000        0.22310442        0.01655103
     189         -0.380381        2.000000        0.23391413        0.02089440
     190         -0.380372        2.000000        0.23385822        0.02088374
     191         -0.380317        2.000000        0.23386431        0.02089554
     192         -0.380314        2.000000        0.23384986        0.02089316
     193         -0.379117        2.000000        0.20784602        0.00951887
     194         -0.379114        2.000000        0.20781022        0.00951487
     195         -0.379098        2.000000        0.20775625        0.00950349
     196         -0.379095        2.000000        0.20777346        0.00951099
     197         -0.378001        2.000000        0.25376417        0.02516621
     198         -0.377997        2.000000        0.25374865        0.02516209
     199         -0.377987        2.000000        0.25376542        0.02517609
     200         -0.377978        2.000000        0.25375369        0.02517451
     201         -0.377741        2.000000        0.23367066        0.01613534
     202         -0.377722        2.000000        0.23359046        0.01611851
     203         -0.377720        2.000000        0.23359677        0.01611658
     204         -0.377712        2.000000        0.23357561        0.01611637
     205         -0.377003        2.000000        0.25327594        0.02266817
     206         -0.377000        2.000000        0.25328118        0.02267007
     207         -0.375347        2.000000        0.22910802        0.01146985
     208         -0.375338        2.000000        0.22910551        0.01147212
     209         -0.375285        2.000000        0.22910178        0.01149173
     210         -0.375273        2.000000        0.22907082        0.01148769
     211         -0.374366        2.000000        0.22331592        0.00923731
     212         -0.374361        2.000000        0.22330669        0.00923554
     213         -0.374345        2.000000        0.22326828        0.00923249
     214         -0.374344        2.000000        0.22325030        0.00923361
     215         -0.373237        2.000000        0.24446290        0.01303058
     216         -0.373224        2.000000        0.24446154        0.01303498
     217         -0.373209        2.000000        0.24439274        0.01303031
     218         -0.373205        2.000000        0.24443500        0.01303013
     219         -0.373038        2.000000        0.01840566        0.01999164
     220         -0.372892        2.000000        0.01880964        0.02033986
     221         -0.372735        2.000000        0.01879565        0.02046973
     222         -0.372479        2.000000        0.01873371        0.02040783
     223         -0.372283        2.000000        0.23125605        0.00908042
     224         -0.372280        2.000000        0.23129244        0.00909066
     225         -0.372256        2.000000        0.00003710        0.00003295
     226         -0.372182        2.000000        0.23217570        0.00923949
     227         -0.372166        2.000000        0.23231523        0.00927258
     228         -0.372148        2.000000        0.22918923        0.00871182
     229         -0.372137        2.000000        0.22905665        0.00868937
     230         -0.372100        2.000000        0.00000214        0.00000213
     231         -0.371378        2.000000        0.24406500        0.01085743
     232         -0.371372        2.000000        0.24417826        0.01088124
     233         -0.371268        2.000000        0.23423170        0.00893320
     234         -0.371257        2.000000        0.23415819        0.00892464
     235         -0.371193        2.000000        0.23763101        0.00954158
     236         -0.371182        2.000000        0.23710063        0.00946770
     237         -0.371104        2.000000        0.24150118        0.01012081
     238         -0.371086        2.000000        0.24194318        0.01019565
     239         -0.371078        2.000000        0.24111012        0.01006822
     240         -0.371076        2.000000        0.24134376        0.01010377
     241         -0.370069        2.000000        0.01844436        0.01824520
     242         -0.369894        2.000000        0.01865266        0.01825766
     243         -0.369776        2.000000        0.01883220        0.01847094
     244         -0.369609        2.000000        0.01865347        0.01834310
     245         -0.367717        2.000000        0.24446968        0.00813476
     246         -0.367715        2.000000        0.24445518        0.00813530
     247         -0.367672        2.000000        0.24474084        0.00816272
     248         -0.367668        2.000000        0.24466709        0.00815620
     249         -0.367500        2.000000        0.24713699        0.00843798
     250         -0.367493        2.000000        0.24634219        0.00846781
     251         -0.367464        2.000000        0.01949180        0.01668211
     252         -0.367164        2.000000        0.24621144        0.00845164
     253         -0.367159        2.000000        0.02295903        0.01681145
     254         -0.367151        2.000000        0.24747579        0.00840416
     255         -0.367088        2.000000        0.24899029        0.00834967
     256         -0.367074        2.000000        0.24895130        0.00835047
     257         -0.366874        2.000000        0.01873829        0.01721442
     258         -0.366733        2.000000        0.01867993        0.01718282
     259         -0.366582        2.000000        0.01885738        0.01691401
     260         -0.366482        2.000000        0.01887810        0.01681996
     261         -0.366252        2.000000        0.01855293        0.01700984
     262         -0.365966        2.000000        0.01858230        0.01705950
     263         -0.365820        2.000000        0.25128431        0.00795380
     264         -0.365806        2.000000        0.25125487        0.00795482
     265         -0.364878        2.000000        0.25528810        0.00792535
     266         -0.364874        2.000000        0.25527523        0.00792580
     267         -0.361448        2.000000        0.00666739        0.01642631
     268         -0.359441        2.000000        0.01284985        0.01421858
     269         -0.359216        2.000000        0.01615841        0.01368625
     270         -0.358982        2.000000        0.01706720        0.01370001
     271         -0.358770        2.000000        0.01621086        0.01404068
     272         -0.358623        2.000000        0.01400792        0.01446930
     273         -0.357983        2.000000        0.01874153        0.01309863
     274         -0.357945        2.000000        0.01873315        0.01303951
     275         -0.357800        2.000000        0.01823608        0.01314140
     276         -0.357596        2.000000        0.01666987        0.01352589
     277         -0.356691        2.000000        0.00441651        0.01594416
     278         -0.356544        2.000000        0.00447049        0.01574623
     279         -0.356174        2.000000        0.00443225        0.01581441
     280         -0.354214        2.000000        0.00512000        0.01587920
     281         -0.353002        2.000000        0.00480100        0.01555496
     282         -0.352888        2.000000        0.00504287        0.01532988
     283         -0.352437        2.000000        0.00496551        0.01514673
     284         -0.352287        2.000000        0.01565199        0.01125649
     285         -0.352245        2.000000        0.01535717        0.01138095
     286         -0.350999        2.000000        0.01769285        0.01099212
     287         -0.350841        2.000000        0.01768879        0.01108496
     288         -0.349669        2.000000        0.01602457        0.01098232
     289         -0.349595        2.000000        0.01627307        0.01088269
     290         -0.349425        2.000000        0.01626327        0.01083074
     291         -0.349373        2.000000        0.01642898        0.01092628
     292         -0.349331        2.000000        0.01658590        0.01110679
     293         -0.349256        2.000000        0.01659856        0.01106889
     294         -0.348941        2.000000        0.01610380        0.01102039
     295         -0.348872        2.000000        0.01628894        0.01110335
     296         -0.347753        2.000000        0.00767436        0.01281617
     297         -0.347370        2.000000        0.01576717        0.01068822
     298         -0.347190        2.000000        0.01553396        0.01087979
     299         -0.347066        2.000000        0.01559197        0.01090187
     300         -0.346966        2.000000        0.01470464        0.01118163
     301         -0.346493        2.000000        0.00577150        0.01403220
     302         -0.346055        2.000000        0.00572899        0.01391917
     303         -0.345634        2.000000        0.00550813        0.01394839
     304         -0.345170        2.000000        0.01315238        0.01061090
     305         -0.345033        2.000000        0.01306905        0.01068807
     306         -0.344781        2.000000        0.01343955        0.01073862
     307         -0.344683        2.000000        0.01339540        0.01077739
     308         -0.344215        2.000000        0.00589856        0.01314910
     309         -0.343650        2.000000        0.00582457        0.01316319
     310         -0.343233        2.000000        0.00628784        0.01301692
     311         -0.342725        2.000000        0.00566261        0.01304041
     312         -0.342472        2.000000        0.00708712        0.01268493
     313         -0.342416        2.000000        0.00596007        0.01297794
     314         -0.342383        2.000000        0.01370451        0.01093816
     315         -0.342359        2.000000        0.01082077        0.01163480
     316         -0.342307        2.000000        0.01033230        0.01176959
     317         -0.342215        2.000000        0.01488949        0.01065663
     318         -0.342110        2.000000        0.01307518        0.01120292
     319         -0.342025        2.000000        0.00702726        0.01264941
     320         -0.338282        2.000000        0.00960496        0.00923673
     321         -0.338199        2.000000        0.00963376        0.00928555
     322         -0.337580        2.000000        0.01039501        0.00985053
     323         -0.337477        2.000000        0.00901088        0.00912420
     324         -0.337391        2.000000        0.00861308        0.00909175
     325         -0.337327        2.000000        0.01023534        0.00982100
     326         -0.337278        2.000000        0.00652318        0.00790114
     327         -0.335590        2.000000        0.01029140        0.01008629
     328         -0.335464        2.000000        0.01035659        0.01016491
     329         -0.335279        2.000000        0.00887225        0.00940071
     330         -0.335204        2.000000        0.00332737        0.00404334
     331         -0.335079        2.000000        0.01004915        0.01021003
     332         -0.334931        2.000000        0.00850948        0.01058803
     333         -0.334787        2.000000        0.00901097        0.01068861
     334         -0.334718        2.000000        0.00849853        0.01094391
     335         -0.334659        2.000000        0.00868424        0.01095903
     336         -0.334520        2.000000        0.01083262        0.01217354
     337         -0.334436        2.000000        0.01078408        0.01216927
     338         -0.334406        2.000000        0.01079527        0.01206336
     339         -0.334321        2.000000        0.01013680        0.01157974
     340         -0.334172        2.000000        0.00981672        0.01128959
     341         -0.334077        2.000000        0.01124667        0.01173578
     342         -0.333866        2.000000        0.01112797        0.01188880
     343         -0.333797        2.000000        0.01144684        0.01205262
     344         -0.333723        2.000000        0.00840360        0.01067619
     345         -0.333289        2.000000        0.00791853        0.00899777
     346         -0.333263        2.000000        0.00610806        0.00827133
     347         -0.333177        2.000000        0.00832270        0.00918702
     348         -0.333083        2.000000        0.00764270        0.00886862
     349         -0.333015        2.000000        0.00834253        0.00934555
     350         -0.332525        2.000000        0.00375563        0.00528019
     351         -0.332158        2.000000        0.00217361        0.00318397
     352         -0.331761        2.000000        0.00419488        0.00747449
     353         -0.331700        2.000000        0.00381004        0.00742126
     354         -0.331661        2.000000        0.00330739        0.00784788
     355         -0.331623        2.000000        0.00327989        0.00847495
     356         -0.331601        2.000000        0.00316742        0.00847167
     357         -0.331544        2.000000        0.00414182        0.00779538
     358         -0.331530        2.000000        0.00440954        0.00734023
     359         -0.331475        2.000000        0.00450151        0.00736636
     360         -0.331431        2.000000        0.00332837        0.00476125
     361         -0.331359        2.000000        0.00406812        0.00736979
     362         -0.331201        2.000000        0.00574936        0.00859525
     363         -0.331182        2.000000        0.00340172        0.00693041
     364         -0.331057        2.000000        0.00501407        0.00706542
     365         -0.330981        2.000000        0.00219901        0.00787706
     366         -0.330815        2.000000        0.00236558        0.00802508
     367         -0.330739        2.000000        0.00223539        0.00322095
     368         -0.330388        2.000000        0.00263133        0.00860577
     369         -0.330357        2.000000        0.00257023        0.00855854
     370         -0.330231        2.000000        0.00254824        0.00865474
     371         -0.330198        2.000000        0.00264231        0.00879037
     372         -0.330135        2.000000        0.00249729        0.00776623
     373         -0.330108        2.000000        0.00254866        0.00782787
     374         -0.330087        2.000000        0.00258857        0.00784509
     375         -0.330049        2.000000        0.00263111        0.00794421
     376         -0.329909        2.000000        0.00626633        0.00813470
     377         -0.329839        2.000000        0.00524504        0.00677370