# Projected DOS for atomic kind C at iteration step i = 0, E(Fermi) =    -0.088683 a.u.
#     MO Eigenvalue [a.u.]      Occupation                 s                 p                 d
       1         -1.012430        2.000000        0.15379979        0.20971137        0.05011724
       2         -0.476994        2.000000        0.20066749        0.13513796        0.00656008
       3         -0.458097        2.000000        0.00000000        0.00000000        0.00000000
       4         -0.454634        2.000000        0.00000000        0.00000000        0.00000000
       5         -0.454610        2.000000        0.00000000        0.00000000        0.00000000
       6         -0.454512        2.000000        0.00000000        0.00000000        0.00000000
       7         -0.454368        2.000000        0.00000000        0.00000000        0.00000000
       8         -0.450972        2.000000        0.00000000        0.00000000        0.00000000
       9         -0.450928        2.000000        0.00000000        0.00000000        0.00000000
      10         -0.450906        2.000000        0.00000000        0.00000000        0.00000000
      11         -0.450803        2.000000        0.00000000        0.00000000        0.00000000
      12         -0.443855        2.000000        0.00000000        0.00000000        0.00000000
      13         -0.443833        2.000000        0.00000000        0.00000000        0.00000000
      14         -0.443537        2.000000        0.00000000        0.00000000        0.00000000
      15         -0.443511        2.000000        0.00000000        0.00000000        0.00000000
      16         -0.440350        2.000000        0.00000000        0.00000000        0.00000000
      17         -0.440333        2.000000        0.00000000        0.00000000        0.00000000
      18         -0.440280        2.000000        0.00000000        0.00000000        0.00000000
      19         -0.440230        2.000000        0.00000000        0.00000000        0.00000000
      20         -0.440053        2.000000        0.00000000        0.00000000        0.00000000
      21         -0.440021        2.000000        0.00000000        0.00000000        0.00000000
      22         -0.439969        2.000000        0.00000000        0.00000000        0.00000000
      23         -0.439925        2.000000        0.00000000        0.00000000        0.00000000
      24         -0.430000        2.000000        0.00000000        0.00000000        0.00000000
      25         -0.429976        2.000000        0.00000000        0.00000000        0.00000000
      26         -0.429972        2.000000        0.00000000        0.00000000        0.00000000
      27         -0.429938        2.000000        0.00000000        0.00000000        0.00000000
      28         -0.426938        2.000000        0.00000000        0.00000000        0.00000000
      29         -0.426923        2.000000        0.00000000        0.00000000        0.00000000
      30         -0.426578        2.000000        0.00000000        0.00000000        0.00000000
      31         -0.426565        2.000000        0.00000000        0.00000000        0.00000000
      32         -0.424038        2.000000        0.00000000        0.00000000        0.00000000
      33         -0.424034        2.000000        0.00000000        0.00000000        0.00000000
      34         -0.423970        2.000000        0.00000000        0.00000000        0.00000000
      35         -0.423947        2.000000        0.00000000        0.00000000        0.00000000
      36         -0.423309        2.000000        0.00000000        0.00000000        0.00000000
      37         -0.423302        2.000000        0.00000000        0.00000000        0.00000000
      38         -0.423237        2.000000        0.00000000        0.00000000        0.00000000
      39         -0.423219        2.000000        0.00000000        0.00000000        0.00000000
      40         -0.415599        2.000000        0.00000000        0.00000000        0.00000000
      41         -0.415582        2.000000        0.00000000        0.00000000        0.00000000
      42         -0.415567        2.000000        0.00000000        0.00000000        0.00000000
      43         -0.415556        2.000000        0.00000000        0.00000000        0.00000000
      44         -0.414293        2.000000        0.00000000        0.00000000        0.00000000
      45         -0.414284        2.000000        0.00000000        0.00000000        0.00000000
      46         -0.414267        2.000000        0.00000000        0.00000000        0.00000000
      47         -0.414254        2.000000        0.00000000        0.00000000        0.00000000
      48         -0.407905        2.000000        0.00000000        0.00000000        0.00000000
      49         -0.407903        2.000000        0.00000000        0.00000000        0.00000000
      50         -0.406775        2.000000        0.00000000        0.00000000        0.00000000
      51         -0.406758        2.000000        0.00000000        0.00000000        0.00000000
      52         -0.405399        2.000000        0.00000000        0.00000000        0.00000000
      53         -0.405383        2.000000        0.00000000        0.00000000        0.00000000
      54         -0.405327        2.000000        0.00000000        0.00000000        0.00000000
      55         -0.405313        2.000000        0.00000000        0.00000000        0.00000000
      56         -0.404837        2.000000        0.00000000        0.00000000        0.00000000
      57         -0.404831        2.000000        0.00000000        0.00000000        0.00000000
      58         -0.404765        2.000000        0.00000000        0.00000000        0.00000000
      59         -0.404763        2.000000        0.00000000        0.00000000        0.00000000
      60         -0.402924        2.000000        0.00000000        0.00000000        0.00000000
      61         -0.402912        2.000000        0.00000000        0.00000000        0.00000000
      62         -0.402910        2.000000        0.00000000        0.00000000        0.00000000
      63         -0.402900        2.000000        0.00000000        0.00000000        0.00000000
      64         -0.401190        2.000000        0.00000002        0.00000008        0.00000001
      65         -0.401169        2.000000        0.00000000        0.00000000        0.00000000
      66         -0.401161        2.000000        0.00000000        0.00000002        0.00000000
      67         -0.401151        2.000000        0.00000000        0.00000002        0.00000000
      68         -0.400462        2.000000        0.00000756        0.00003004        0.00000322
      69         -0.397182        2.000000        0.00088212        0.00382633        0.00031494
      70         -0.397014        2.000000        0.01805056        0.07859976        0.00637740
      71         -0.396941        2.000000        0.02262744        0.09864639        0.00795638
      72         -0.396878        2.000000        0.00003991        0.00017423        0.00001398
      73         -0.396874        2.000000        0.00002522        0.00011006        0.00000883
      74         -0.396856        2.000000        0.00018554        0.00081010        0.00006488
      75         -0.396854        2.000000        0.00000017        0.00000074        0.00000006
      76         -0.396710        2.000000        0.00253596        0.01109693        0.00087840
      77         -0.396556        2.000000        0.00281010        0.01233630        0.00096359
      78         -0.394898        2.000000        0.00000000        0.00000000        0.00000000
      79         -0.394883        2.000000        0.00000000        0.00000002        0.00000000
      80         -0.394482        2.000000        0.00000000        0.00000000        0.00000000
      81         -0.394470        2.000000        0.00000001        0.00000005        0.00000000
      82         -0.394467        2.000000        0.00000000        0.00000000        0.00000000
      83         -0.394457        2.000000        0.00000000        0.00000000        0.00000000
      84         -0.393483        2.000000        0.00001682        0.00007701        0.00000463
      85         -0.393357        2.000000        0.00004542        0.00020798        0.00001239
      86         -0.393143        2.000000        0.00000366        0.00001682        0.00000099
      87         -0.392721        2.000000        0.00001291        0.00005823        0.00000333
      88         -0.391941        2.000000        0.00000000        0.00000000        0.00000000
      89         -0.391933        2.000000        0.00000000        0.00000000        0.00000000
      90         -0.391889        2.000000        0.00000000        0.00000000        0.00000000
      91         -0.391865        2.000000        0.00000001        0.00000003        0.00000000
      92         -0.391743        2.000000        0.00000000        0.00000000        0.00000000
      93         -0.391740        2.000000        0.00000001        0.00000004        0.00000000
      94         -0.391571        2.000000        0.00000000        0.00000000        0.00000000
      95         -0.391451        2.000000        0.00000000        0.00000002        0.00000000
      96         -0.391448        2.000000        0.00000000        0.00000000        0.00000000
      97         -0.391432        2.000000        0.00000000        0.00000000        0.00000000
      98         -0.391423        2.000000        0.00000000        0.00000001        0.00000000
      99         -0.391275        2.000000        0.00000000        0.00000001        0.00000000
     100         -0.391267        2.000000        0.00000000        0.00000001        0.00000000
     101         -0.391249        2.000000        0.00000000        0.00000000        0.00000000
     102         -0.391244        2.000000        0.00000000        0.00000001        0.00000000
     103         -0.391108        2.000000        0.00000000        0.00000000        0.00000000
     104         -0.391059        2.000000        0.00000000        0.00000000        0.00000000
     105         -0.390815        2.000000        0.00000000        0.00000000        0.00000000
     106         -0.390799        2.000000        0.00000000        0.00000000        0.00000000
     107         -0.390716        2.000000        0.00000000        0.00000000        0.00000000
     108         -0.390712        2.000000        0.00000000        0.00000000        0.00000000
     109         -0.390616        2.000000        0.00000000        0.00000000        0.00000000
     110         -0.390612        2.000000        0.00000000        0.00000000        0.00000000
     111         -0.390565        2.000000        0.00000000        0.00000000        0.00000000
     112         -0.390550        2.000000        0.00000000        0.00000000        0.00000000
     113         -0.390520        2.000000        0.00000000        0.00000000        0.00000000
     114         -0.390512        2.000000        0.00000000        0.00000000        0.00000000
     115         -0.389656        2.000000        0.00000000        0.00000000        0.00000000
     116         -0.389653        2.000000        0.00000000        0.00000000        0.00000000
     117         -0.389585        2.000000        0.00000000        0.00000000        0.00000000
     118         -0.389584        2.000000        0.00000000        0.00000000        0.00000000
     119         -0.389445        2.000000        0.00000000        0.00000000        0.00000000
     120         -0.389436        2.000000        0.00000000        0.00000000        0.00000000
     121         -0.389373        2.000000        0.00000000        0.00000000        0.00000000
     122         -0.389360        2.000000        0.00000000        0.00000000        0.00000000
     123         -0.388825        2.000000        0.00000000        0.00000000        0.00000000
     124         -0.388816        2.000000        0.00000000        0.00000000        0.00000000
     125         -0.388815        2.000000        0.00000000        0.00000000        0.00000000
     126         -0.388805        2.000000        0.00000000        0.00000000        0.00000000
     127         -0.388802        2.000000        0.00000000        0.00000000        0.00000000
     128         -0.388733        2.000000        0.00000000        0.00000000        0.00000000
     129         -0.388431        2.000000        0.00000000        0.00000000        0.00000000
     130         -0.388428        2.000000        0.00000000        0.00000000        0.00000000
     131         -0.388314        2.000000        0.00000000        0.00000000        0.00000000
     132         -0.388281        2.000000        0.00000000        0.00000000        0.00000000
     133         -0.388277        2.000000        0.00000000        0.00000000        0.00000000
     134         -0.388164        2.000000        0.00000000        0.00000000        0.00000000
     135         -0.388013        2.000000        0.00000000        0.00000000        0.00000000
     136         -0.388010        2.000000        0.00000000        0.00000000        0.00000000
     137         -0.387985        2.000000        0.00000000        0.00000000        0.00000000
     138         -0.387983        2.000000        0.00000000        0.00000000        0.00000000
     139         -0.387962        2.000000        0.00000000        0.00000000        0.00000000
     140         -0.387947        2.000000        0.00000000        0.00000000        0.00000000
     141         -0.387909        2.000000        0.00000000        0.00000000        0.00000000
     142         -0.387883        2.000000        0.00000000        0.00000000        0.00000000
     143         -0.386548        2.000000        0.00000001        0.00000006        0.00000000
     144         -0.386546        2.000000        0.00000000        0.00000001        0.00000000
     145         -0.386504        2.000000        0.00000010        0.00000045        0.00000001
     146         -0.386500        2.000000        0.00000006        0.00000029        0.00000001
     147         -0.386462        2.000000        0.00000663        0.00003113        0.00000100
     148         -0.386439        2.000000        0.00000001        0.00000005        0.00000000
     149         -0.386428        2.000000        0.00000001        0.00000006        0.00000000
     150         -0.386419        2.000000        0.00000000        0.00000001        0.00000000
     151         -0.386418        2.000000        0.00000006        0.00000029        0.00000001
     152         -0.386280        2.000000        0.00000261        0.00001227        0.00000039
     153         -0.386158        2.000000        0.00000028        0.00000131        0.00000004
     154         -0.386116        2.000000        0.00000006        0.00000027        0.00000001
     155         -0.386100        2.000000        0.00000004        0.00000017        0.00000001
     156         -0.386088        2.000000        0.00000007        0.00000031        0.00000001
     157         -0.386080        2.000000        0.00000002        0.00000008        0.00000000
     158         -0.386067        2.000000        0.00000091        0.00000405        0.00000013
     159         -0.384530        2.000000        0.00000000        0.00000000        0.00000000
     160         -0.384514        2.000000        0.00000000        0.00000000        0.00000000
     161         -0.384508        2.000000        0.00000000        0.00000000        0.00000000
     162         -0.384494        2.000000        0.00000000        0.00000000        0.00000000
     163         -0.383252        2.000000        0.00000751        0.00003530        0.00000083
     164         -0.383144        2.000000        0.00000001        0.00000004        0.00000000
     165         -0.383125        2.000000        0.00000000        0.00000001        0.00000000
     166         -0.383117        2.000000        0.00000000        0.00000001        0.00000000
     167         -0.383102        2.000000        0.00000000        0.00000001        0.00000000
     168         -0.383056        2.000000        0.00000022        0.00000113        0.00000004
     169         -0.382845        2.000000        0.00000052        0.00000247        0.00000006
     170         -0.382646        2.000000        0.00000179        0.00000838        0.00000018
     171         -0.382548        2.000000        0.00000009        0.00000044        0.00000001
     172         -0.382464        2.000000        0.00000151        0.00000712        0.00000015
     173         -0.382324        2.000000        0.00000026        0.00000128        0.00000003
     174         -0.381927        2.000000        0.00000002        0.00000009        0.00000000
     175         -0.381918        2.000000        0.00000000        0.00000000        0.00000000
     176         -0.381897        2.000000        0.00000006        0.00000025        0.00000001
     177         -0.381887        2.000000        0.00000003        0.00000011        0.00000000
     178         -0.381795        2.000000        0.00000432        0.00001897        0.00000043
     179         -0.381327        2.000000        0.00000000        0.00000000        0.00000000
     180         -0.381309        2.000000        0.00000000        0.00000000        0.00000000
     181         -0.380896        2.000000        0.00000000        0.00000000        0.00000000
     182         -0.380884        2.000000        0.00000000        0.00000000        0.00000000
     183         -0.380863        2.000000        0.00000000        0.00000000        0.00000000
     184         -0.380817        2.000000        0.00000000        0.00000000        0.00000000
     185         -0.380641        2.000000        0.00000000        0.00000000        0.00000000
     186         -0.380628        2.000000        0.00000000        0.00000000        0.00000000
     187         -0.380623        2.000000        0.00000000        0.00000000        0.00000000
     188         -0.380599        2.000000        0.00000000        0.00000000        0.00000000
     189         -0.380381        2.000000        0.00000000        0.00000000        0.00000000
     190         -0.380372        2.000000        0.00000000        0.00000000        0.00000000
     191         -0.380317        2.000000        0.00000000        0.00000000        0.00000000
     192         -0.380314        2.000000        0.00000000        0.00000000        0.00000000
     193         -0.379117        2.000000        0.00000000        0.00000000        0.00000000
     194         -0.379114        2.000000        0.00000000        0.00000000        0.00000000
     195         -0.379098        2.000000        0.00000000        0.00000000        0.00000000
     196         -0.379095        2.000000        0.00000000        0.00000000        0.00000000
     197         -0.378001        2.000000        0.00000000        0.00000000        0.00000000
     198         -0.377997        2.000000        0.00000000        0.00000000        0.00000000
     199         -0.377987        2.000000        0.00000000        0.00000000        0.00000000
     200         -0.377978        2.000000        0.00000000        0.00000000        0.00000000
     201         -0.377741        2.000000        0.00000000        0.00000000        0.00000000
     202         -0.377722        2.000000        0.00000000        0.00000000        0.00000000
     203         -0.377720        2.000000        0.00000000        0.00000000        0.00000000
     204         -0.377712        2.000000        0.00000000        0.00000000        0.00000000
     205         -0.377003        2.000000        0.00000000        0.00000000        0.00000000
     206         -0.377000        2.000000        0.00000000        0.00000000        0.00000000
     207         -0.375347        2.000000        0.00000000        0.00000000        0.00000000
     208         -0.375338        2.000000        0.00000000        0.00000000        0.00000000
     209         -0.375285        2.000000        0.00000000        0.00000000        0.00000000
     210         -0.375273        2.000000        0.00000000        0.00000000        0.00000000
     211         -0.374366        2.000000        0.00000000        0.00000000        0.00000000
     212         -0.374361        2.000000        0.00000000        0.00000000        0.00000000
     213         -0.374345        2.000000        0.00000000        0.00000000        0.00000000
     214         -0.374344        2.000000        0.00000000        0.00000000        0.00000000
     215         -0.373237        2.000000        0.00000000        0.00000000        0.00000000
     216         -0.373224        2.000000        0.00000000        0.00000000        0.00000000
     217         -0.373209        2.000000        0.00000000        0.00000001        0.00000000
     218         -0.373205        2.000000        0.00000000        0.00000000        0.00000000
     219         -0.373038        2.000000        0.00000538        0.00005251        0.00000222
     220         -0.372892        2.000000        0.00000005        0.00002490        0.00000193
     221         -0.372735        2.000000        0.00000001        0.00000308        0.00000024
     222         -0.372479        2.000000        0.00000129        0.00043777        0.00003284
     223         -0.372283        2.000000        0.00000000        0.00000231        0.00000018
     224         -0.372280        2.000000        0.00000000        0.00000954        0.00000073
     225         -0.372256        2.000000        0.00000552        0.31274019        0.02386888
     226         -0.372182        2.000000        0.00000000        0.00000014        0.00000001
     227         -0.372166        2.000000        0.00000000        0.00000023        0.00000002
     228         -0.372148        2.000000        0.00000000        0.00000016        0.00000001
     229         -0.372137        2.000000        0.00000000        0.00000004        0.00000000
     230         -0.372100        2.000000        0.00000008        0.31273458        0.02366136
     231         -0.371378        2.000000        0.00000000        0.00000000        0.00000000
     232         -0.371372        2.000000        0.00000000        0.00000000        0.00000000
     233         -0.371268        2.000000        0.00000000        0.00000000        0.00000000
     234         -0.371257        2.000000        0.00000000        0.00000000        0.00000000
     235         -0.371193        2.000000        0.00000000        0.00000000        0.00000000
     236         -0.371182        2.000000        0.00000000        0.00000000        0.00000000
     237         -0.371104        2.000000        0.00000000        0.00000000        0.00000000
     238         -0.371086        2.000000        0.00000000        0.00000000        0.00000000
     239         -0.371078        2.000000        0.00000000        0.00000000        0.00000000
     240         -0.371076        2.000000        0.00000000        0.00000000        0.00000000
     241         -0.370069        2.000000        0.00000445        0.00002342        0.00000051
     242         -0.369894        2.000000        0.00000021        0.00000245        0.00000012
     243         -0.369776        2.000000        0.00000005        0.00000249        0.00000016
     244         -0.369609        2.000000        0.00000199        0.00001315        0.00000049
     245         -0.367717        2.000000        0.00000000        0.00000000        0.00000000
     246         -0.367715        2.000000        0.00000000        0.00000000        0.00000000
     247         -0.367672        2.000000        0.00000000        0.00000000        0.00000000
     248         -0.367668        2.000000        0.00000000        0.00000000        0.00000000
     249         -0.367500        2.000000        0.00000001        0.00000006        0.00000000
     250         -0.367493        2.000000        0.00000004        0.00000018        0.00000000
     251         -0.367464        2.000000        0.00000751        0.00003374        0.00000038
     252         -0.367164        2.000000        0.00000000        0.00000003        0.00000000
     253         -0.367159        2.000000        0.00000014        0.00000152        0.00000007
     254         -0.367151        2.000000        0.00000000        0.00000001        0.00000000
     255         -0.367088        2.000000        0.00000000        0.00000000        0.00000000
     256         -0.367074        2.000000        0.00000000        0.00000000        0.00000000
     257         -0.366874        2.000000        0.00000001        0.00000024        0.00000002
     258         -0.366733        2.000000        0.00000190        0.00000820        0.00000009
     259         -0.366582        2.000000        0.00000000        0.00000010        0.00000001
     260         -0.366482        2.000000        0.00000014        0.00000090        0.00000003
     261         -0.366252        2.000000        0.00000504        0.00002182        0.00000019
     262         -0.365966        2.000000        0.00000119        0.00000623        0.00000022
     263         -0.365820        2.000000        0.00000000        0.00000000        0.00000000
     264         -0.365806        2.000000        0.00000000        0.00000000        0.00000000
     265         -0.364878        2.000000        0.00000000        0.00000000        0.00000000
     266         -0.364874        2.000000        0.00000000        0.00000000        0.00000000
     267         -0.361448        2.000000        0.00008937        0.00036356        0.00000275
     268         -0.359441        2.000000        0.00001161        0.00004635        0.00000038
     269         -0.359216        2.000000        0.00000226        0.00000935        0.00000008
     270         -0.358982        2.000000        0.00000077        0.00000334        0.00000003
     271         -0.358770        2.000000        0.00000149        0.00000645        0.00000005
     272         -0.358623        2.000000        0.00002725        0.00010744        0.00000087
     273         -0.357983        2.000000        0.00000018        0.00000083        0.00000002
     274         -0.357945        2.000000        0.00000016        0.00000057        0.00000001
     275         -0.357800        2.000000        0.00000002        0.00000014        0.00000002
     276         -0.357596        2.000000        0.00001699        0.00006449        0.00000061
     277         -0.356691        2.000000        0.00000004        0.00000027        0.00000002
     278         -0.356544        2.000000        0.00000163        0.00000624        0.00000010
     279         -0.356174        2.000000        0.00000156        0.00000577        0.00000010
     280         -0.354214        2.000000        0.00002499        0.00009546        0.00000099
     281         -0.353002        2.000000        0.00000180        0.00000697        0.00000023
     282         -0.352888        2.000000        0.00000594        0.00002113        0.00000036
     283         -0.352437        2.000000        0.00000030        0.00000120        0.00000004
     284         -0.352287        2.000000        0.00000017        0.00000056        0.00000001
     285         -0.352245        2.000000        0.00000000        0.00000001        0.00000000
     286         -0.350999        2.000000        0.00000043        0.00000150        0.00000004
     287         -0.350841        2.000000        0.00000007        0.00000030        0.00000002
     288         -0.349669        2.000000        0.00000089        0.00000327        0.00000005
     289         -0.349595        2.000000        0.00000003        0.00000020        0.00000002
     290         -0.349425        2.000000        0.00000000        0.00000002        0.00000000
     291         -0.349373        2.000000        0.00000000        0.00000000        0.00000000
     292         -0.349331        2.000000        0.00000223        0.00000776        0.00000012
     293         -0.349256        2.000000        0.00000001        0.00000011        0.00000001
     294         -0.348941        2.000000        0.00000231        0.00000772        0.00000016
     295         -0.348872        2.000000        0.00000012        0.00000067        0.00000002
     296         -0.347753        2.000000        0.00007231        0.00026051        0.00000405
     297         -0.347370        2.000000        0.00000087        0.00000280        0.00000006
     298         -0.347190        2.000000        0.00000002        0.00000010        0.00000002
     299         -0.347066        2.000000        0.00000001        0.00000008        0.00000002
     300         -0.346966        2.000000        0.00001830        0.00006387        0.00000109
     301         -0.346493        2.000000        0.00000219        0.00000872        0.00000064
     302         -0.346055        2.000000        0.00001311        0.00004391        0.00000087
     303         -0.345634        2.000000        0.00000279        0.00000874        0.00000031
     304         -0.345170        2.000000        0.00000002        0.00000008        0.00000001
     305         -0.345033        2.000000        0.00000008        0.00000028        0.00000001
     306         -0.344781        2.000000        0.00000046        0.00000139        0.00000003
     307         -0.344683        2.000000        0.00000127        0.00000410        0.00000008