# Projected DOS for atomic kind Au at iteration step i = 0, E(Fermi) =    -0.088683 a.u.
#     MO Eigenvalue [a.u.]      Occupation                 s                 p                 d                 f
       1         -1.012430        2.000000        0.01115964        0.02832630        0.02862727        0.02394204
       2         -0.476994        2.000000        0.03786605        0.03925970        0.10290225        0.00555291
       3         -0.458097        2.000000        0.52280587        0.05871567        0.13449106        0.00323948
       4         -0.454634        2.000000        0.46168232        0.07854903        0.13034909        0.00907823
       5         -0.454610        2.000000        0.46196726        0.07842389        0.13040079        0.00904785
       6         -0.454512        2.000000        0.46095972        0.07877553        0.13039019        0.00914713
       7         -0.454368        2.000000        0.46093937        0.07871082        0.13056376        0.00914413
       8         -0.450972        2.000000        0.41920004        0.09594272        0.12800486        0.01427738
       9         -0.450928        2.000000        0.41889294        0.09599388        0.12815740        0.01429925
      10         -0.450906        2.000000        0.41900473        0.09598337        0.12809180        0.01428949
      11         -0.450803        2.000000        0.41869220        0.09602249        0.12827449        0.01431667
      12         -0.443855        2.000000        0.36244863        0.12527332        0.12775442        0.02301872
      13         -0.443833        2.000000        0.36215922        0.12531477        0.12790925        0.02305552
      14         -0.443537        2.000000        0.36054159        0.12620954        0.12811423        0.02338235
      15         -0.443511        2.000000        0.36030529        0.12625572        0.12822504        0.02340910
      16         -0.440350        2.000000        0.34029866        0.13817071        0.13032430        0.02703828
      17         -0.440333        2.000000        0.34028920        0.13817196        0.13033870        0.02703783
      18         -0.440280        2.000000        0.34032241        0.13812806        0.13036327        0.02703425
      19         -0.440230        2.000000        0.34000718        0.13819391        0.13048155        0.02707654
      20         -0.440053        2.000000        0.33963045        0.13921741        0.12939263        0.02715237
      21         -0.440021        2.000000        0.33945469        0.13920803        0.12951287        0.02717369
      22         -0.439969        2.000000        0.33937799        0.13915247        0.12961088        0.02719086
      23         -0.439925        2.000000        0.33902797        0.13915276        0.12984259        0.02722477
      24         -0.430000        2.000000        0.28864873        0.17036533        0.14339604        0.03717262
      25         -0.429976        2.000000        0.28857162        0.17033868        0.14345887        0.03719327
      26         -0.429972        2.000000        0.28855128        0.17033381        0.14347034        0.03719366
      27         -0.429938        2.000000        0.28831760        0.17030690        0.14363160        0.03723301
      28         -0.426938        2.000000        0.27601591        0.17898016        0.14691608        0.03984262
      29         -0.426923        2.000000        0.27590927        0.17895558        0.14699829        0.03986409
      30         -0.426578        2.000000        0.27204721        0.17798624        0.15402705        0.04039038
      31         -0.426565        2.000000        0.27201859        0.17798180        0.15403391        0.04039919
      32         -0.424038        2.000000        0.26094489        0.18427194        0.15966272        0.04263440
      33         -0.424034        2.000000        0.26087988        0.18426191        0.15969002        0.04265083
      34         -0.423970        2.000000        0.26085595        0.18424684        0.15972740        0.04265266
      35         -0.423947        2.000000        0.26069038        0.18420962        0.15984959        0.04268673
      36         -0.423309        2.000000        0.25965349        0.18675219        0.15750481        0.04306360
      37         -0.423302        2.000000        0.25958753        0.18673195        0.15754152        0.04308127
      38         -0.423237        2.000000        0.25941744        0.18665778        0.15768172        0.04311801
      39         -0.423219        2.000000        0.25941344        0.18666154        0.15768094        0.04311962
      40         -0.415599        2.000000        0.22085460        0.19517986        0.19864539        0.04953386
      41         -0.415582        2.000000        0.22082562        0.19517010        0.19864123        0.04955180
      42         -0.415567        2.000000        0.22078983        0.19514568        0.19869784        0.04955502
      43         -0.415556        2.000000        0.22067896        0.19510509        0.19878620        0.04957849
      44         -0.414293        2.000000        0.22298430        0.20322407        0.18154384        0.05064537
      45         -0.414284        2.000000        0.22299687        0.20323453        0.18153268        0.05064205
      46         -0.414267        2.000000        0.22286418        0.20315548        0.18167303        0.05067158
      47         -0.414254        2.000000        0.22284976        0.20315216        0.18167669        0.05067935
      48         -0.407905        2.000000        0.18252945        0.19403516        0.25194429        0.05460008
      49         -0.407903        2.000000        0.18250893        0.19402710        0.25197204        0.05460051
      50         -0.406775        2.000000        0.19107567        0.20946312        0.21209918        0.05698972
      51         -0.406758        2.000000        0.19106546        0.20946755        0.21209356        0.05699346
      52         -0.405399        2.000000        0.17752726        0.20132967        0.24406258        0.05736908
      53         -0.405383        2.000000        0.17750668        0.20132368        0.24409958        0.05736736
      54         -0.405327        2.000000        0.17743647        0.20124625        0.24425076        0.05737614
      55         -0.405313        2.000000        0.17740379        0.20124406        0.24427633        0.05738279
      56         -0.404837        2.000000        0.17376325        0.19914449        0.25261117        0.05742163
      57         -0.404831        2.000000        0.17373633        0.19912815        0.25265643        0.05742503
      58         -0.404765        2.000000        0.17361993        0.19905503        0.25273351        0.05746494
      59         -0.404763        2.000000        0.17363788        0.19905237        0.25273279        0.05746109
      60         -0.402924        2.000000        0.16483821        0.19808909        0.26458745        0.05888966
      61         -0.402912        2.000000        0.16483518        0.19807499        0.26464485        0.05888386
      62         -0.402910        2.000000        0.16480178        0.19803026        0.26465872        0.05890447
      63         -0.402900        2.000000        0.16481366        0.19806094        0.26463762        0.05889806
      64         -0.401190        2.000000        0.14374826        0.17872893        0.32575285        0.05760553
      65         -0.401169        2.000000        0.14317069        0.17879057        0.32598581        0.05765371
      66         -0.401161        2.000000        0.14334092        0.17872618        0.32598640        0.05764056
      67         -0.401151        2.000000        0.14313575        0.17871468        0.32608428        0.05766718
      68         -0.400462        2.000000        0.68889076        0.14812653        0.10228144        0.00540294
      69         -0.397182        2.000000        0.64186192        0.17871421        0.10512688        0.00823570
      70         -0.397014        2.000000        0.42940035        0.12319120        0.13744676        0.00837408
      71         -0.396941        2.000000        0.37014464        0.11079362        0.14617814        0.00849966
      72         -0.396878        2.000000        0.14623632        0.20310703        0.27122017        0.06471285
      73         -0.396874        2.000000        0.14774737        0.20306307        0.27079749        0.06456826
      74         -0.396856        2.000000        0.14679885        0.20243864        0.27091099        0.06444202
      75         -0.396854        2.000000        0.14601838        0.20313469        0.27159515        0.06478712
      76         -0.396710        2.000000        0.61573970        0.17525100        0.11029356        0.00865742
      77         -0.396556        2.000000        0.61793871        0.17155111        0.10966094        0.00826682
      78         -0.394898        2.000000        0.09838804        0.14099369        0.44001210        0.05687117
      79         -0.394883        2.000000        0.09848873        0.14102875        0.43988771        0.05687292
      80         -0.394482        2.000000        0.10083068        0.14760888        0.42418613        0.05877123
      81         -0.394470        2.000000        0.10106930        0.14763548        0.42409839        0.05873501
      82         -0.394467        2.000000        0.10079113        0.14760117        0.42423677        0.05877703
      83         -0.394457        2.000000        0.10080371        0.14762746        0.42421433        0.05876888
      84         -0.393483        2.000000        0.61831733        0.21038875        0.10786213        0.01104940
      85         -0.393357        2.000000        0.62108813        0.20879189        0.10690796        0.01088453
      86         -0.393143        2.000000        0.61648106        0.21055464        0.10902848        0.01118943
      87         -0.392721        2.000000        0.61566284        0.20853713        0.11116621        0.01122529
      88         -0.391941        2.000000        0.09198853        0.14451534        0.43462937        0.06093669
      89         -0.391933        2.000000        0.09198485        0.14447045        0.43469606        0.06093593
      90         -0.391889        2.000000        0.09130422        0.14331044        0.43735735        0.06077034
      91         -0.391865        2.000000        0.09148941        0.14348025        0.43693106        0.06078766
      92         -0.391743        2.000000        0.02974611        0.02501235        0.71023018        0.04056208
      93         -0.391740        2.000000        0.02996897        0.02503044        0.71009574        0.04053853
      94         -0.391571        2.000000        0.02894534        0.02346102        0.71355390        0.04018773
      95         -0.391451        2.000000        0.07530512        0.11777358        0.50090245        0.05698831
      96         -0.391448        2.000000        0.07534191        0.11777719        0.50082482        0.05698248
      97         -0.391432        2.000000        0.07525687        0.11778442        0.50093892        0.05698061
      98         -0.391423        2.000000        0.07574230        0.11839408        0.49932476        0.05707705
      99         -0.391275        2.000000        0.05871125        0.08700065        0.57407940        0.05143158
     100         -0.391267        2.000000        0.05895380        0.08746312        0.57300950        0.05151113
     101         -0.391249        2.000000        0.05810925        0.08591557        0.57657704        0.05122952
     102         -0.391244        2.000000        0.05766572        0.08505477        0.57854278        0.05109319
     103         -0.391108        2.000000        0.03260656        0.03367843        0.69239668        0.04232454
     104         -0.391059        2.000000        0.03366927        0.03605352        0.68719177        0.04276625
     105         -0.390815        2.000000        0.04957582        0.07032038        0.61203383        0.04875137
     106         -0.390799        2.000000        0.05043459        0.07217836        0.60795507        0.04908160
     107         -0.390716        2.000000        0.03282258        0.03666487        0.68597096        0.04391020
     108         -0.390712        2.000000        0.03280710        0.03668070        0.68591576        0.04392668
     109         -0.390616        2.000000        0.03125675        0.03329247        0.69314507        0.04341356
     110         -0.390612        2.000000        0.03132449        0.03348276        0.69272965        0.04344721
     111         -0.390565        2.000000        0.03556343        0.04275908        0.67302308        0.04485476
     112         -0.390550        2.000000        0.03580381        0.04335515        0.67175970        0.04495658
     113         -0.390520        2.000000        0.03508908        0.04171966        0.67525531        0.04469495
     114         -0.390512        2.000000        0.03522445        0.04209325        0.67441877        0.04477279
     115         -0.389656        2.000000        0.09472275        0.16080856        0.39567885        0.06648412
     116         -0.389653        2.000000        0.09517278        0.16175738        0.39349505        0.06664108
     117         -0.389585        2.000000        0.09446005        0.16035365        0.39677919        0.06639918
     118         -0.389584        2.000000        0.09420783        0.15984649        0.39795568        0.06631532
     119         -0.389445        2.000000        0.02897588        0.03309669        0.69258010        0.04533109
     120         -0.389436        2.000000        0.02869639        0.03255923        0.69383064        0.04524540
     121         -0.389373        2.000000        0.02794455        0.03110738        0.69720515        0.04500736
     122         -0.389360        2.000000        0.02810902        0.03143206        0.69646236        0.04506582
     123         -0.388825        2.000000        0.09050040        0.15516908        0.40684783        0.06621289
     124         -0.388816        2.000000        0.08102573        0.13668140        0.45002697        0.06316425
     125         -0.388815        2.000000        0.06022890        0.09611695        0.54486685        0.05645349
     126         -0.388805        2.000000        0.09746437        0.16871303        0.37520746        0.06843974
     127         -0.388802        2.000000        0.10079564        0.17522689        0.35994177        0.06953207
     128         -0.388733        2.000000        0.02603838        0.02946265        0.70059631        0.04545440
     129         -0.388431        2.000000        0.10447076        0.18373375        0.33904140        0.07127998
     130         -0.388428        2.000000        0.10393465        0.18272081        0.34144156        0.07111249
     131         -0.388314        2.000000        0.03050524        0.04145072        0.67504265        0.04791755
     132         -0.388281        2.000000        0.02973185        0.04000080        0.67842723        0.04770117
     133         -0.388277        2.000000        0.03013015        0.04089620        0.67647516        0.04785348
     134         -0.388164        2.000000        0.02983558        0.04030610        0.67772981        0.04778206
     135         -0.388013        2.000000        0.03979025        0.06348204        0.62746632        0.05201993
     136         -0.388010        2.000000        0.03955574        0.06315949        0.62819274        0.05199456
     137         -0.387985        2.000000        0.03979310        0.06360699        0.62714353        0.05205907
     138         -0.387983        2.000000        0.03953904        0.06308190        0.62835368        0.05197497
     139         -0.387962        2.000000        0.04486629        0.07395308        0.60375489        0.05360472
     140         -0.387947        2.000000        0.04508250        0.07445720        0.60265908        0.05369530
     141         -0.387909        2.000000        0.04577666        0.07596894        0.59924001        0.05396116
     142         -0.387883        2.000000        0.04566245        0.07568441        0.59983555        0.05391328
     143         -0.386548        2.000000        0.03864708        0.05658706        0.64100965        0.05218634
     144         -0.386546        2.000000        0.03271969        0.05443161        0.64660632        0.05265441
     145         -0.386504        2.000000        0.04289432        0.06861626        0.61492165        0.05434068
     146         -0.386500        2.000000        0.04246444        0.06791721        0.61646528        0.05425392
     147         -0.386462        2.000000        0.54145684        0.25151021        0.13708538        0.01737533
     148         -0.386439        2.000000        0.03404928        0.05310839        0.64915714        0.05212462
     149         -0.386428        2.000000        0.03311436        0.05087899        0.65393049        0.05175882
     150         -0.386419        2.000000        0.02842979        0.04429945        0.66851458        0.05098961
     151         -0.386418        2.000000        0.03200699        0.04647983        0.66343062        0.05090752
     152         -0.386280        2.000000        0.55087318        0.25548406        0.12665573        0.01696284
     153         -0.386158        2.000000        0.53444401        0.25361459        0.13768643        0.01835445
     154         -0.386116        2.000000        0.11369956        0.13090114        0.46676965        0.05820511
     155         -0.386100        2.000000        0.08822352        0.12361382        0.48623577        0.06069683
     156         -0.386088        2.000000        0.09079184        0.12214596        0.48911575        0.05989415
     157         -0.386080        2.000000        0.06825880        0.11553493        0.50662517        0.06205541
     158         -0.386067        2.000000        0.45000464        0.23063049        0.20309934        0.02625811
     159         -0.384530        2.000000        0.07311759        0.14775741        0.42979819        0.07047026
     160         -0.384514        2.000000        0.07313830        0.14778678        0.42972442        0.07047450
     161         -0.384508        2.000000        0.07309840        0.14771502        0.42987440        0.07046494
     162         -0.384494        2.000000        0.07312681        0.14774975        0.42979872        0.07046602
     163         -0.383252        2.000000        0.53406751        0.27631967        0.12689702        0.01827810
     164         -0.383144        2.000000        0.02606137        0.05075047        0.65496142        0.05554763
     165         -0.383125        2.000000        0.02417850        0.04988610        0.65700222        0.05566579
     166         -0.383117        2.000000        0.02549273        0.05049868        0.65555859        0.05558656
     167         -0.383102        2.000000        0.02650126        0.05093893        0.65455907        0.05549748
     168         -0.383056        2.000000        0.52174986        0.27439167        0.13682572        0.01944494
     169         -0.382845        2.000000        0.52703853        0.27800225        0.13016134        0.01906002
     170         -0.382646        2.000000        0.52825825        0.27764427        0.12946934        0.01900155
     171         -0.382548        2.000000        0.52666593        0.27775597        0.13049534        0.01917844
     172         -0.382464        2.000000        0.52648154        0.27759598        0.13084586        0.01919566
     173         -0.382324        2.000000        0.52485788        0.27856121        0.13138927        0.01932225
     174         -0.381927        2.000000        0.02659876        0.05767841        0.63958005        0.05803147
     175         -0.381918        2.000000        0.02444121        0.05675820        0.64172451        0.05820884
     176         -0.381897        2.000000        0.03093398        0.05957759        0.63518717        0.05770017
     177         -0.381887        2.000000        0.02608753        0.05746693        0.64007090        0.05807851
     178         -0.381795        2.000000        0.51396222        0.27120058        0.14465242        0.02027319
     179         -0.381327        2.000000        0.01779644        0.04440391        0.66964507        0.05589093
     180         -0.381309        2.000000        0.01790238        0.04467648        0.66901940        0.05595132
     181         -0.380896        2.000000        0.02075608        0.05366916        0.64864884        0.05841592
     182         -0.380884        2.000000        0.02080112        0.05377684        0.64840309        0.05843909
     183         -0.380863        2.000000        0.02187785        0.05647089        0.64222929        0.05899835
     184         -0.380817        2.000000        0.02196131        0.05666842        0.64176928        0.05904090
     185         -0.380641        2.000000        0.03326289        0.08426878        0.57859585        0.06461366
     186         -0.380628        2.000000        0.03365323        0.08522502        0.57639908        0.06480441
     187         -0.380623        2.000000        0.03323062        0.08421175        0.57871533        0.06459976
     188         -0.380599        2.000000        0.03350783        0.08484578        0.57727073        0.06472021
     189         -0.380381        2.000000        0.04189096        0.10581392        0.52858406        0.06890253
     190         -0.380372        2.000000        0.04189181        0.10576301        0.52871395        0.06888925
     191         -0.380317        2.000000        0.04185414        0.10577837        0.52872290        0.06888475
     192         -0.380314        2.000000        0.04186464        0.10577155        0.52873818        0.06888261
     193         -0.379117        2.000000        0.01546665        0.04945133        0.65944405        0.05827309
     194         -0.379114        2.000000        0.01545505        0.04941717        0.65953970        0.05826299
     195         -0.379098        2.000000        0.01543653        0.04934804        0.65971150        0.05824418
     196         -0.379095        2.000000        0.01545299        0.04938708        0.65962183        0.05825365
     197         -0.378001        2.000000        0.04727039        0.13101368        0.46681526        0.07597028
     198         -0.377997        2.000000        0.04726495        0.13099183        0.46687202        0.07596047
     199         -0.377987        2.000000        0.04728896        0.13104769        0.46674637        0.07597547
     200         -0.377978        2.000000        0.04728846        0.13104015        0.46677571        0.07596749
     201         -0.377741        2.000000        0.03000409        0.09252231        0.55829863        0.06936898
     202         -0.377722        2.000000        0.02996778        0.09243214        0.55854800        0.06934310
     203         -0.377720        2.000000        0.02996182        0.09242093        0.55855867        0.06934524
     204         -0.377712        2.000000        0.02996445        0.09241958        0.55857942        0.06934456
     205         -0.377003        2.000000        0.04170263        0.12445232        0.48182470        0.07607624
     206         -0.377000        2.000000        0.04170579        0.12446359        0.48179981        0.07607956
     207         -0.375347        2.000000        0.01779396        0.07513639        0.59918608        0.06730570
     208         -0.375338        2.000000        0.01779724        0.07514979        0.59917327        0.06730207
     209         -0.375285        2.000000        0.01784970        0.07522080        0.59903083        0.06730515
     210         -0.375273        2.000000        0.01784081        0.07519824        0.59910770        0.06729474
     211         -0.374366        2.000000        0.01158034        0.06343321        0.62906955        0.06336367
     212         -0.374361        2.000000        0.01157447        0.06341894        0.62910567        0.06335869
     213         -0.374345        2.000000        0.01157232        0.06338759        0.62918568        0.06335365
     214         -0.374344        2.000000        0.01157825        0.06338951        0.62919659        0.06335173
     215         -0.373237        2.000000        0.01937437        0.09124335        0.55908772        0.07280109
     216         -0.373224        2.000000        0.01940164        0.09127861        0.55902101        0.07280221
     217         -0.373209        2.000000        0.01948111        0.09129027        0.55902912        0.07277641
     218         -0.373205        2.000000        0.01938397        0.09123886        0.55912168        0.07279037
     219         -0.373038        2.000000        0.45521933        0.31847491        0.16201070        0.02576003
     220         -0.372892        2.000000        0.45131922        0.31887360        0.16416174        0.02642170
     221         -0.372735        2.000000        0.45051415        0.31881259        0.16488516        0.02651355
     222         -0.372479        2.000000        0.44991877        0.31829915        0.16487882        0.02645048
     223         -0.372283        2.000000        0.00967973        0.06955967        0.61519852        0.06521865
     224         -0.372280        2.000000        0.00974264        0.06965157        0.61494029        0.06525369
     225         -0.372256        2.000000        0.00081991        0.00426670        0.03776147        0.01484277
     226         -0.372182        2.000000        0.01006590        0.07075637        0.61188510        0.06587701
     227         -0.372166        2.000000        0.01016962        0.07099194        0.61126527        0.06598468
     228         -0.372148        2.000000        0.00870262        0.06676408        0.62291836        0.06371340
     229         -0.372137        2.000000        0.00863196        0.06658501        0.62342228        0.06361460
     230         -0.372100        2.000000        0.00020428        0.00384455        0.04083005        0.01483747
     231         -0.371378        2.000000        0.01275684        0.08434430        0.57699561        0.07098081
     232         -0.371372        2.000000        0.01281196        0.08450120        0.57657469        0.07105265
     233         -0.371268        2.000000        0.00834914        0.07144070        0.61174864        0.06529662
     234         -0.371257        2.000000        0.00832529        0.07136757        0.61195647        0.06526784
     235         -0.371193        2.000000        0.00975754        0.07578290        0.59995463        0.06733232
     236         -0.371182        2.000000        0.00957690        0.07516528        0.60167808        0.06701140
     237         -0.371104        2.000000        0.01104895        0.08036692        0.58726282        0.06969931
     238         -0.371086        2.000000        0.01121623        0.08093073        0.58573409        0.06998013
     239         -0.371078        2.000000        0.01094207        0.07993738        0.58846076        0.06948144
     240         -0.371076        2.000000        0.01101220        0.08020940        0.58770561        0.06962525
     241         -0.370069        2.000000        0.43121470        0.32651416        0.17745902        0.02806794
     242         -0.369894        2.000000        0.42674352        0.32717600        0.18105459        0.02810881
     243         -0.369776        2.000000        0.42915484        0.32776158        0.17679552        0.02897748
     244         -0.369609        2.000000        0.42786181        0.32740863        0.17902900        0.02867020
     245         -0.367717        2.000000        0.00338851        0.07680457        0.60354018        0.06366229
     246         -0.367715        2.000000        0.00342040        0.07682519        0.60350433        0.06365958
     247         -0.367672        2.000000        0.00344409        0.07707156        0.60270675        0.06387404
     248         -0.367668        2.000000        0.00342511        0.07700050        0.60292919        0.06382189
     249         -0.367500        2.000000        0.00465025        0.08013310        0.59375317        0.06588838
     250         -0.367493        2.000000        0.00605294        0.08098969        0.59237706        0.06576993
     251         -0.367464        2.000000        0.41124205        0.32875741        0.19410231        0.02965094
     252         -0.367164        2.000000        0.00841233        0.08361412        0.58789576        0.06541464
     253         -0.367159        2.000000        0.40100657        0.32724604        0.20097595        0.03099682
     254         -0.367151        2.000000        0.00616869        0.08222789        0.59011356        0.06560989
     255         -0.367088        2.000000        0.00348925        0.08054540        0.59276537        0.06586001
     256         -0.367074        2.000000        0.00350498        0.08055102        0.59278595        0.06585628
     257         -0.366874        2.000000        0.40632034        0.33194059        0.19500115        0.03078445
     258         -0.366733        2.000000        0.40705685        0.33232984        0.19397605        0.03075651
     259         -0.366582        2.000000        0.40444503        0.33391619        0.19463349        0.03123358