    1142
 i =       18, E =    -30616.4227605643
  O        19.1036250200       18.3155144800       28.8623923041
  C        19.1036250200       18.3155144800       27.7180546810
 Au        19.1036250200       18.3155144800       25.7138212910
 Au        17.2586153573       17.5812737754       23.7523829784
 Au        19.1861030536       19.6296156965       23.2689833510
 Au        21.0863755182       17.5425924355       23.8921796128
 Au        15.4230863612       16.8949025278       21.8423738928
 Au        16.9486773412       19.3749809347       21.6058279612
 Au        19.2194691868       16.2023864088       22.3478840599
 Au        19.2216747713       21.1678707369       20.8993349500
 Au        21.5137765302       19.3235258206       21.7742200714
 Au        22.9378636070       16.7982838283       21.9967555879
 Au        13.6880152136       16.1230607898       19.8381874658
 Au        15.0927984283       18.6996210573       19.6787991436
 Au        17.4794486599       15.9174725557       20.2765665334
 Au        19.2707469907       18.3215422119       20.2521476217
 Au        16.7321534601       21.2150945478       19.5458544861
 Au        18.5823369896       23.5088497359       19.2381699502
 Au        20.9701069347       15.8688694659       20.2905511360
 Au        23.4073511091       18.6301369822       19.8881472449
 Au        21.7947710497       21.1510026431       19.7578853487
 Au        24.6789626305       16.0041379266       19.9928074086
 Au        -0.0562499918       -0.0408426480       18.1758790085
 Au         1.4299183877        2.5103085268       18.1683332294
 Au        -0.0211104216        5.0585171893       18.1783171427
 Au         1.4679321654        7.5876352574       18.1786927304
 Au         0.0038111151       10.1256289414       18.1647051543
 Au         1.4777301338       12.6617635312       18.1634510678
 Au        -0.0048732031       15.2065185150       18.1490089585
 Au         1.4344389436       17.7673133513       18.1459790466
 Au        -0.0402588350       20.3296876062       18.1442878261
 Au         1.3941443616       22.9018620613       18.1750011866
 Au        -0.0676526743       25.4597748664       18.1695231607
 Au         1.3799121232       28.0363584019       18.1886536298
 Au        -0.0742655037       30.5762404479       18.1947338743
 Au         1.3789317919       33.1409703171       18.1824928543
 Au        -0.0724751505       35.6948772214       18.1710338141
 Au         1.3897509604       38.2548540144       18.1865922968
 Au         2.8573185084       -0.0577252333       18.1872437940
 Au         4.3526218736        2.4585402191       18.1858481033
 Au         2.9259550828        5.0401978069       18.1729871088
 Au         4.4263044314        7.5642661528       18.1553682737
 Au         2.9612639248       10.1186251516       18.1544439104
 Au         4.4366253934       12.6630951176       18.1478916715
 Au         2.9340887851       15.2083543665       18.1544886299
 Au         4.3434396566       17.7807579500       18.1608655430
 Au         2.8623582636       20.3455031453       18.1682580431
 Au         4.2894261169       22.9302094013       18.1630070543
 Au         2.8303781138       25.4839057995       18.1717064441
 Au         4.2708550265       28.0612244395       18.1848178863
 Au         2.8200701444       30.5997061198       18.1892845121
 Au         4.2746059985       33.1540131335       18.1873613547
 Au         2.8241905264       35.6937534616       18.1842899214
 Au         4.2893265248       38.2194679996       18.1983884585
 Au         5.7658489448       -0.1433772481       18.2010840851
 Au         7.2594259602        2.2975930348       18.2260507083
 Au         5.8654627458        4.9604429714       18.1654225400
 Au         7.3704254752        7.4763254428       18.1513967196
 Au         5.9228976454       10.1003363832       18.1514434606
 Au         7.3930524795       12.6535964729       18.1456160543
 Au         5.8718543583       15.2217133960       18.1513362239
 Au         7.2249491690       17.8087232049       18.1778214773
 Au         5.7502554340       20.3694486332       18.1614693247
 Au         7.1674225067       22.9844301308       18.1819459201
 Au         5.7188109461       25.5222672801       18.1928797843
 Au         7.1588866545       28.1048587047       18.2042256973
 Au         5.7179117446       30.6250705314       18.1844498442
 Au         7.1826416875       33.1666743063       18.1863267860
 Au         5.7335680813       35.6816507360       18.1891475220
 Au         7.2154670806       38.1615024954       18.1935412185
 Au         8.7099216513       -0.2500346902       18.2115052350
 Au        10.2178016504        2.1491122412       18.2530860420
 Au         8.7565206291        4.6984358446       18.2191545853
 Au        10.2427339009        7.0809229558       18.2173813367
 Au         8.8593969314        9.9986365527       18.1410131686
 Au        10.3200893971       12.5413871755       18.1183180618
 Au         8.8069343663       15.2337505394       18.1352743672
 Au        10.0677083871       17.8820010736       18.1475412419
 Au         8.6103164494       20.4471779340       18.2086590872
 Au        10.0254075983       23.0874938187       18.2296838289
 Au         8.5922780117       25.5952719788       18.2144339369
 Au        10.0499127638       28.1684469223       18.2076449598
 Au         8.6185131120       30.6650345892       18.1848841181
 Au        10.1173680777       33.1691145888       18.1831103593
 Au         8.6657692925       35.6556703460       18.2060236197
 Au        10.1771962554       38.0959203719       18.1934215596
 Au        11.6968572468       -0.3495678253       18.2227745363
 Au        13.2072830038        2.0430734023       18.2599734855
 Au        11.7227758514        4.5347836482       18.2535042139
 Au        13.2029302605        6.9369183031       18.2656361772
 Au        11.6979112800        9.4577147207       18.2397291706
 Au        13.1254218009       11.8270826780       18.2493289879
 Au        11.7312656642       15.0996265086       18.1252037300
 Au        12.8945118441       18.0957579956       18.0341562947
 Au        11.4520255151       20.5929434743       18.1761010481
 Au        12.8920672644       23.2339814708       18.2003241944
 Au        11.4670057772       25.6925585999       18.2514698626
 Au        12.9622772636       28.2300468871       18.2261305769
 Au        11.5493042430       30.6930148244       18.1866082182
 Au        13.0928612894       33.1388266799       18.1816756984
 Au        11.6355916541       35.6112417783       18.1933537218
 Au        13.1775282289       38.0110118856       18.2051442572
 Au        14.6940921073       -0.4360263505       18.2326480405
 Au        16.1896889505        1.9814392508       18.2402992160
 Au        14.6958974737        4.4550348785       18.2591918687
 Au        16.1787493164        6.8663618388       18.2531405056
 Au        14.6676611465        9.3370244961       18.2593338185
 Au        16.1883885014       11.6809887341       18.2437117501
 Au        14.6833182391       14.0892064232       18.2401716134
 Au        16.0269433621       16.5385238581       18.0071905273
 Au        14.3538832447       20.7904819162       18.0700885537
 Au        15.8291817839       23.3693306115       18.1310626710
 Au        14.3740220141       25.7848375924       18.2108179772
 Au        15.9466541651       28.2279455591       18.1750926718
 Au        14.5218495655       30.6747629834       18.1864520969
 Au        16.1190365107       33.0572232381       18.1677968772
 Au        14.6478256255       35.5355091441       18.1922538035
 Au        16.1806693753       37.9368173682       18.2160767705
 Au        17.6808572759       -0.4871937513       18.2334399105
 Au        19.1711062983        1.9487730723       18.2474664135
 Au        17.6798484947        4.4060171504       18.2538788983
 Au        19.1737901175        6.8257903359       18.2593850402
 Au        17.6805353566        9.2577834052       18.2512146454
 Au        19.1892271721       11.6446408324       18.2466849216
 Au        17.6999450138       14.0474910670       18.2075836111
 Au        19.2250877317       16.4854387597       18.0649150549
 Au        17.5827547275       18.9387453967       18.0518722297
 Au        19.4580067262       21.2203712138       18.0173995880
 Au        17.3753655423       25.7913437571       18.2019436021
 Au        19.0358387387       28.1195877215       18.2001977700
 Au        17.5791896930       30.5842822775       18.1786530347
 Au        19.1413081724       32.9840334640       18.1811816686
 Au        17.6571001520       35.4621593812       18.1920474560
 Au        19.1659986487       37.8939543278       18.2155744841
 Au        20.6554082006       -0.5118901901       18.2383370596
 Au        22.1486496457        1.9381424519       18.2472027781
 Au        20.6640963195        4.3872466800       18.2569568532
 Au        22.1689019194        6.8311215034       18.2552516065
 Au        20.6794605696        9.2405428505       18.2514315707
 Au        22.1919933156       11.6454229047       18.2521640561
 Au        20.7096870835       14.0286049217       18.2096016368
 Au        22.4687071335       16.4847101269       18.0537403955
 Au        21.0024437755       18.8562277192       18.0807563691
 Au        21.9797482318       23.2394711590       18.0372226542
 Au        20.3268458982       25.5487282777       18.2014841135
 Au        22.0453223214       27.9490816678       18.1360544952
 Au        20.6130412765       30.4951389997       18.1806375312
 Au        22.1279712229       32.9467449325       18.1759818629
 Au        20.6452251583       35.4246469271       18.1989534228
 Au        22.1404988813       37.8753490684       18.2276275065
 Au        23.6270755416       -0.5133086893       18.2446281954
 Au        25.1141052294        1.9590682366       18.2723592855
 Au        23.6397815648        4.3987839606       18.2693380999
 Au        25.1370250615        6.8674051331       18.2729266845
 Au        23.6888588427        9.2828666310       18.2749525294
 Au        25.2531728305       11.7378517436       18.2641336289
 Au        23.7446619474       14.0237151158       18.2666530936
 Au        25.3500134254       17.9020661851       18.0113720281
 Au        23.8521443268       20.5899375476       17.9888561748
 Au        25.1976390696       23.0803205618       18.1403627835
 Au        23.6422680059       25.5450388167       18.1317128051
 Au        25.1079049737       28.0029012562       18.1728380766
 Au        23.5767704925       30.4400358178       18.1648005095
 Au        25.0872111908       32.9341417961       18.1945635996
 Au        23.6183235901       35.4135321020       18.2103121444
 Au        25.1093238605       37.8849143054       18.2297948403
 Au        26.5924844002       -0.4759577022       18.2429017860
 Au        28.0758380751        2.0274714208       18.2672855325
 Au        26.6013795996        4.4432048598       18.2655737237
 Au        28.0942517794        6.9745144539       18.2198710008
 Au        26.6626542952        9.3649245660       18.2469390829
 Au        28.0252806978       12.5317505342       18.1311773367
 Au        26.6003926326       15.0781638814       18.1636379069
 Au        28.1929582233       17.7831380013       18.1735810987
 Au        26.7522615451       20.4428837530       18.1721941101
 Au        28.1218466425       22.9615467032       18.1943542195
 Au        26.6417561018       25.5303353237       18.1905306100
 Au        28.0937427785       28.0066204478       18.1756828048
 Au        26.5771624691       30.4813982701       18.1646436762
 Au        28.0658220927       32.9747556033       18.1862552882
 Au        26.5783677615       35.4254068139       18.2147829214
 Au        28.0658273241       37.9282121505       18.2174975251
 Au        29.5485142891       -0.3980025193       18.2325073802
 Au        31.0187048455        2.1691657579       18.2383399302
 Au        29.5508827870        4.5787794208       18.2302093823
 Au        30.9464124674        7.4459844445       18.1470943209
 Au        29.4777552800        9.9850380247       18.1403655354
 Au        30.9496045349       12.6227832157       18.1605470092
 Au        29.5208029044       15.1817357932       18.1700177868
 Au        31.0485331489       17.7509832840       18.1914506959
 Au        29.6064913069       20.3536002615       18.2043571611
 Au        31.0218546487       22.8973571012       18.1639050173
 Au        29.5645244272       25.4715114790       18.1846479625
 Au        31.0232580077       27.9808014057       18.1883997596
 Au        29.5524825827       30.5037091322       18.1783173051
 Au        31.0238562429       33.0116022445       18.1957635773
 Au        29.5417254685       35.4789167408       18.2146913485
 Au        31.0180601114       38.0068932586       18.2063080774
 Au        32.4820926266       -0.2706570431       18.2036766272
 Au        33.9089138677        2.3966442526       18.1761732531
 Au        32.4219139015        4.9087560593       18.1596313505
 Au        33.8823200467        7.5334972272       18.1574442090
 Au        32.4084575274       10.0715635322       18.1561557810
 Au        33.8927653318       12.6372260548       18.1565801256
 Au        32.4478967425       15.1890170581       18.1606038295
 Au        33.9379877942       17.7566156073       18.1636394876
 Au        32.4884040233       20.3182558353       18.1602631087
 Au        33.9305992271       22.8808474257       18.1606224255
 Au        32.4748662336       25.4367767049       18.1757586586
 Au        33.9419236301       27.9796360778       18.1731746501
 Au        32.4823044676       30.5094769092       18.1775296044
 Au        33.9504761890       33.0480958343       18.1803503056
 Au        32.4810937716       35.5427656932       18.1952236690
 Au        33.9471628466       38.1078780462       18.1947715092
 Au        35.3839658667       -0.1168136869       18.1803603962
 Au        36.8320168051        2.4793478136       18.1704305440
 Au        35.3576067857        5.0059530349       18.1688238091
 Au        36.8329869797        7.5670360408       18.1801230844
 Au        35.3579765717       10.0969229482       18.1619539093
 Au        36.8408446520       12.6515789818       18.1684419747
 Au        35.3799489394       15.1917277486       18.1538414087
 Au        36.8565169584       17.7515663101       18.1407084992
 Au        35.3960405246       20.3194527827       18.1626991468
 Au        36.8458323849       22.8787615858       18.1666978308
 Au        35.3894828904       25.4335020335       18.1694927007
 Au        36.8531569460       27.9919578359       18.1834914806
 Au        35.4029124600       30.5260588604       18.1839786503
 Au        36.8585208205       33.0867737340       18.1817159540
 Au        35.4000350171       35.6107164859       18.1784978034
 Au        36.8473813571       38.2115843470       18.1770192548
 Au        38.3008631407       -0.0555470222       18.1764855649
 Au        39.7663418334        2.5124723605       18.1671645046
 Au        38.3044942551        5.0474483769       18.1770334829
 Au        39.7858677857        7.5946648403       18.1757495041
 Au        38.3070916130       10.1186779756       18.1643596901
 Au        39.7954748832       12.6569158093       18.1573915993
 Au        38.3182529173       15.2001996142       18.1481383672
 Au        39.7845242576       17.7524318273       18.1348900263
 Au        38.3078937400       20.3192573459       18.1374629128
 Au        39.7619391517       22.8895778097       18.1579156937
 Au        38.3016530083       25.4415618919       18.1654261590
 Au        39.7559460562       28.0083426842       18.1781917760
 Au        38.3044887378       30.5505904731       18.1944472450
 Au        39.7547264896       33.1226482359       18.1834553894
 Au        38.3010469851       35.6701697346       18.1661591522
 Au        39.7558630035       38.2482528348       18.1698682992
 Au        -0.0089193139        1.6823830851       15.6862851579
 Au         1.4637024700        4.2342257116       15.6861176830
 Au        -0.0029280462        6.7875470690       15.6860450987
 Au         1.4752080606        9.3315241698       15.6810180299
 Au         0.0011197157       11.8816208604       15.6830679077
 Au         1.4699081343       14.4296335318       15.6792852745
 Au        -0.0056909522       16.9787384128       15.6765191287
 Au         1.4582233698       19.5346181000       15.6796201817
 Au        -0.0154937547       22.0959171772       15.6788530940
 Au         1.4608272092       24.6497038083       15.6822430382
 Au        -0.0155925245       27.2076543836       15.6861500286
 Au         1.4573261029       29.7617559302       15.6861139694
 Au        -0.0241096738       32.3122222094       15.6879672512
 Au         1.4596724363       34.8660140953       15.6839605156
 Au        -0.0228476216       37.4212573716       15.6869775923
 Au         1.4580301154       39.9762815979       15.6878451903
 Au         2.9327686524        1.6775827350       15.6882727557
 Au         4.4049229545        4.2252060466       15.6888094562
 Au         2.9438183025        6.7812274736       15.6858353833
 Au         4.4236805019        9.3257863175       15.6833261373
 Au         2.9503318006       11.8794593037       15.6828337730
 Au         4.4200576930       14.4312427180       15.6832317435
 Au         2.9370517892       16.9821700567       15.6769720890
 Au         4.4001815303       19.5416552762       15.6809948009
 Au         2.9254939529       22.0946865555       15.6819987265
 Au         4.4055437980       24.6554224617       15.6873786401
 Au         2.9218094259       27.2089994451       15.6864493266
 Au         4.3943476745       29.7638947344       15.6852551150
 Au         2.9103427965       32.3138355240       15.6860703354
 Au         4.3944375505       34.8711360973       15.6832293445
 Au         2.9149950394       37.4236102991       15.6858912309
 Au         4.3959821797       39.9755092706       15.6881535573
 Au         5.8753721659        1.6797755229       15.6896333092
 Au         7.3569726934        4.2227638053       15.6808719917
 Au         5.8874371914        6.7654248102       15.6845508075
 Au         7.3713392877        9.3136256891       15.6822726403
 Au         5.8996055358       11.8751230482       15.6817908542
 Au         7.3599465780       14.4265113290       15.6743592372
 Au         5.8728303482       16.9903813068       15.6825861499
 Au         7.3524722123       19.5507299850       15.6855961826
 Au         5.8728782045       22.0989905789       15.6813969461
 Au         7.3553907193       24.6617226735       15.6867515273
 Au         5.8636552264       27.2125821549       15.6889380443
 Au         7.3348180665       29.7677818318       15.6846508455
 Au         5.8506010921       32.3234829510       15.6841818721
 Au         7.3351989368       34.8809199774       15.6851288362
 Au         5.8496874992       37.4265147922       15.6867732492
 Au         7.3376880218       39.9833980227       15.6857312456
 Au         8.8215999057        1.6894242313       15.6965542516
 Au        10.3073529496        4.2387942016       15.6931760452
 Au         8.8407113714        6.7762537264       15.6802084711
 Au        10.3302644012        9.3321193279       15.6802259177
 Au         8.8414408337       11.8614591290       15.6769160395
 Au        10.3110910211       14.4133330642       15.6963752687
 Au         8.7979644850       16.9867645230       15.6711050716
 Au        10.2850858774       19.5606743298       15.6784081810
 Au         8.8284395694       22.1150872808       15.6928217781
 Au        10.2965448759       24.6860970328       15.7012668604
 Au         8.8079075737       27.2223308184       15.6896580714
 Au        10.2790363662       29.7815612027       15.6863783355
 Au         8.7884037076       32.3315157917       15.6817022003
 Au        10.2782805764       34.8982547680       15.6822191133
 Au         8.7944690940       37.4371359802       15.6837103143
 Au        10.2867606491       39.9970561108       15.6900977434
 Au        11.7712182116        1.7029949493       15.6993950483
 Au        13.2557652223        4.2514246607       15.6917927683
 Au        11.7934748490        6.7890742649       15.6860338742
 Au        13.2770890310        9.3487016423       15.6822483314
 Au        11.8134753826       11.8983820287       15.6768773041
 Au        13.2732002857       14.4684265483       15.7141756050
 Au        11.7140835205       16.9706203877       15.7044897579
 Au        13.2078885251       19.6244159001       15.6553650023
 Au        11.7699079057       22.1596532563       15.6830670120
 Au        13.2466692583       24.7209248260       15.6807958031
 Au        11.7537889656       27.2432091508       15.6940226965
 Au        13.2260619822       29.7992302556       15.6798357390
 Au        11.7315273859       32.3508479143       15.6802592193
 Au        13.2306860254       34.9101456614       15.6859336861
 Au        11.7478553828       37.4536108983       15.6869513541
 Au        13.2427604359       40.0086181066       15.6920566572
 Au        14.7224238431        1.7092139625       15.6933281041
 Au        16.2085509864        4.2586745076       15.6947783115
 Au        14.7406161168        6.8043271711       15.6924102123
 Au        16.2210502766        9.3658931899       15.6922030138
 Au        14.7552604332       11.9213725267       15.7004974659
 Au        16.1991798782       14.5062238062       15.7056762602
 Au        14.6358270340       17.0646375886       15.6828629543
 Au        16.1272817473       19.5966237932       15.7568044378
 Au        14.7363551154       22.1926956797       15.6417277764
 Au        16.2182132273       24.7190354591       15.6505561050
 Au        14.7091710109       27.2640163449       15.6798523217
 Au        16.1818169993       29.8220668020       15.6811472215
 Au        14.6828393604       32.3639100893       15.6810301911
 Au        16.1963444937       34.9108192804       15.6833854894
 Au        14.7095671676       37.4608423028       15.6887794113
 Au        16.2028837750       40.0102916491       15.6898258743
 Au        17.6847340289        1.7099350175       15.6894164545
 Au        19.1658735035        4.2541337404       15.6888163694
 Au        17.6926873163        6.8060595099       15.6890687809
 Au        19.1723219920        9.3631105487       15.6790766698
 Au        17.7028064672       11.9467107537       15.6919278375
 Au        19.1854895481       14.5070673011       15.6853499889
 Au        17.6730772509       17.0510367570       15.6806388643
 Au        19.1806716799       19.5518993899       15.6929851025
 Au        17.6335736882       22.0691763129       15.9257783130
 Au        19.0960809503       24.5648294084       15.7667315785
 Au        17.6571037757       27.2523219039       15.6795278500
 Au        19.1355396661       29.8064177237       15.6845878908
 Au        17.6561178241       32.3611541614       15.6833913255
 Au        19.1647344727       34.9057700399       15.6828239341
 Au        17.6739516837       37.4592180889       15.6854080753
 Au        19.1661443893       40.0089688485       15.6878088681
 Au        20.6473630241        1.7077238883       15.6908129784
 Au        22.1211726213        4.2545762368       15.6955191204
 Au        20.6425470559        6.8037646987       15.6909490346
 Au        22.1219643515        9.3595251300       15.6940916836
 Au        20.6520232881       11.9416903564       15.6963365721
 Au        22.1647403258       14.4900727708       15.7184041094
 Au        20.7145713429       17.0429179414       15.6956235726
 Au        22.1984289102       19.6188431192       15.6877366465
 Au        20.6410967446       22.1261468534       15.6588802745
 Au        22.0526423104       24.7699951795       15.6689663308
 Au        20.5574840297       27.2321397929       15.6972769999
 Au        22.0917000118       29.7955648407       15.6795268810
 Au        20.6198689668       32.3495853267       15.6800175157
 Au        22.1251575946       34.8994991023       15.6847532901
 Au        20.6385068159       37.4555616598       15.6860019530
 Au        22.1258212445       40.0066388117       15.6907241446
 Au        23.6012166396        1.7052147081       15.6935347680
 Au        25.0700997610        4.2450025307       15.6929053592
 Au        23.5922545222        6.7962595704       15.6919312521
 Au        25.0596305196        9.3376687895       15.6857593336
 Au        23.5927737971       11.9104546680       15.7028548024
 Au        25.0739004557       14.4541055820       15.7168185378
 Au        23.6856912842       17.0530485909       15.6525441048
 Au        25.1394155538       19.5869712360       15.6555439892
 Au        23.5797737286       22.2194034690       15.6827966530
 Au        25.0655232407       24.7222090678       15.6705341881
 Au        23.5670471712       27.2719223448       15.6798777729
 Au        25.0729711508       29.7957164279       15.6765818466
 Au        23.5843548085       32.3435129357       15.6793775930
 Au        25.0813393250       34.8949864506       15.6874243474
 Au        23.5932867578       37.4521793032       15.6895035813
 Au        25.0765949622       40.0008553217       15.6911861144
 Au        26.5460338456        1.6958161970       15.6996400629
 Au        28.0121300658        4.2299693375       15.6929231665
 Au        26.5340432594        6.7801424509       15.6873872269
 Au        28.0008985947        9.3246703372       15.6827011719
 Au        26.5261237564       11.8874766656       15.6841112799
 Au        28.0168677858       14.4036084224       15.7093682060
 Au        26.6206336640       16.9501352884       15.6810009591
 Au        28.0478394556       19.5346593616       15.6835309022
 Au        26.5396951473       22.1330363163       15.6843659524
 Au        28.0179570806       24.6708798319       15.6906898969
 Au        26.5487629045       27.2432678911       15.6837795063
 Au        28.0341423453       29.7824631911       15.6854971908
 Au        26.5427949247       32.3434030662       15.6843168454
 Au        28.0307759134       34.8888782125       15.6907835229
 Au        26.5400011880       37.4430201219       15.6876547281
 Au        28.0227849232       39.9905854251       15.6934632890
 Au        29.4876705841        1.6815941955       15.6971271361
 Au        30.9558333782        4.2168285293       15.6791541470
 Au        29.4847257365        6.7697146838       15.6793864637
 Au        30.9571278748        9.3046078641       15.6820761507
 Au        29.4886802319       11.8541034356       15.6790683807
 Au        30.9626497450       14.4151612047       15.6801838288
 Au        29.5254633613       16.9689209532       15.6811958988
 Au        30.9677820756       19.5352318386       15.6880248251
 Au        29.4782541346       22.0965742185       15.6889755793
 Au        30.9578688188       24.6488982251       15.6830556098
 Au        29.4933765120       27.2159078760       15.6823439943
 Au        30.9764872055       29.7642162624       15.6815996334
 Au        29.4941875797       32.3296614059       15.6821412167
 Au        30.9751897212       34.8755902945       15.6876879262
 Au        29.4887238771       37.4313332695       15.6872256755
 Au        30.9658019406       39.9738201213       15.6884716135
 Au        32.4319907703        1.6695651956       15.6894117178
 Au        33.9077628802        4.2125041839       15.6884400105
 Au        32.4366222293        6.7553672398       15.6851284187
 Au        33.9025992628        9.3178883023       15.6844152358
 Au        32.4265897058       11.8661999787       15.6844186598
 Au        33.9003181539       14.4212826845       15.6824235773
 Au        32.4423369405       16.9786397963       15.6862734213
 Au        33.9119450423       19.5335975670       15.6819514651
 Au        32.4286746632       22.0882286413       15.6819404574
 Au        33.9027011131       24.6493086873       15.6850731084
 Au        32.4342380533       27.2062017393       15.6860112856
 Au        33.9187560918       29.7591669241       15.6870678641
 Au        32.4323541711       32.3180092066       15.6828083714
 Au        33.9175646340       34.8616277804       15.6839666415
 Au        32.4356442928       37.4169924297       15.6870999154
 Au        33.9094545154       39.9647616051       15.6882900653
 Au        35.3750110512        1.6667623412       15.6873247875
 Au        36.8516320660        4.2260156707       15.6869111805
 Au        35.3774997873        6.7721506484       15.6854984730
 Au        36.8465888116        9.3264187734       15.6814331312
 Au        35.3729963542       11.8734999669       15.6831005540
 Au        36.8495791867       14.4259152407       15.6807689096
 Au        35.3748833909       16.9756805122       15.6774821493
 Au        36.8514990316       19.5328530884       15.6756681263
 Au        35.3738709416       22.0915694694       15.6818031975
 Au        36.8475721462       24.6490847516       15.6807380372
 Au        35.3764082364       27.2048431508       15.6839193569
 Au        36.8597406799       29.7581445165       15.6835694836
 Au        35.3739811372       32.3077945244       15.6836764275
 Au        36.8563400114       34.8599092811       15.6832607694
 Au        35.3764106422       37.4130283554       15.6840391811
 Au        36.8504898472       39.9695345207       15.6884042941
 Au        38.3158150315        1.6788282440       15.6868027562
 Au        39.7941057437        4.2376360742       15.6891400591
 Au        38.3222263882        6.7838312616       15.6868691302
 Au        39.7962554708        9.3335315015       15.6885883450
 Au        38.3188063951       11.8799498298       15.6850914646
 Au        39.7955873262       14.4290890576       15.6827644406